# vtk DataFile Version 2.0
sampleSurface
ASCII
DATASET POLYDATA
POINTS 14016 float
0 0 0
0 0.00261032 0
0 0.00524152 0
0 0.00789376 0
0 0.0105672 0
0 0.013262 0
0 0.0159784 0
0 0.0187166 0
0 0.0214766 0
0 0.0242587 0
0 0.027063 0
0 0.0298898 0
0 0.0327391 0
0 0.0356113 0
0 0.0385064 0
0 0.0414247 0
0 0.0443664 0
0 0.0473315 0
0 0.0503204 0
0 0.0533332 0
0 0.0563701 0
0 0.0594312 0
0 0.0625169 0
0 0.0656272 0
0 0.0687624 0
0 0.0719227 0
0 0.0751083 0
0 0.0783193 0
0 0.081556 0
0 0.0848186 0
0 0.0881073 0
0 0.0914223 0
0 0.0947638 0
0 0.0981321 0
0 0.101527 0
0 0.10495 0
0 0.108399 0
0 0.111877 0
0 0.115382 0
0 0.118915 0
0 0.122476 0
0 0.126066 0
0 0.129685 0
0 0.133332 0
0 0.137009 0
0 0.140715 0
0 0.144451 0
0 0.148216 0
0 0.152012 0
0 0.155838 0
0 0.159695 0
0 0.163583 0
0 0.167501 0
0 0.171451 0
0 0.175433 0
0 0.179446 0
0 0.183492 0
0 0.18757 0
0 0.19168 0
0 0.195823 0
0 0.2 0
0 0 0.004
0 0.00261032 0.004
0 0.00524152 0.004
0 0.00789376 0.004
0 0.0105672 0.004
0 0.013262 0.004
0 0.0159784 0.004
0 0.0187166 0.004
0 0.0214766 0.004
0 0.0242587 0.004
0 0.027063 0.004
0 0.0298898 0.004
0 0.0327391 0.004
0 0.0356113 0.004
0 0.0385064 0.004
0 0.0414247 0.004
0 0.0443664 0.004
0 0.0473315 0.004
0 0.0503204 0.004
0 0.0533332 0.004
0 0.0563701 0.004
0 0.0594312 0.004
0 0.0625169 0.004
0 0.0656272 0.004
0 0.0687624 0.004
0 0.0719227 0.004
0 0.0751083 0.004
0 0.0783193 0.004
0 0.081556 0.004
0 0.0848186 0.004
0 0.0881073 0.004
0 0.0914223 0.004
0 0.0947638 0.004
0 0.0981321 0.004
0 0.101527 0.004
0 0.10495 0.004
0 0.108399 0.004
0 0.111877 0.004
0 0.115382 0.004
0 0.118915 0.004
0 0.122476 0.004
0 0.126066 0.004
0 0.129685 0.004
0 0.133332 0.004
0 0.137009 0.004
0 0.140715 0.004
0 0.144451 0.004
0 0.148216 0.004
0 0.152012 0.004
0 0.155838 0.004
0 0.159695 0.004
0 0.163583 0.004
0 0.167501 0.004
0 0.171451 0.004
0 0.175433 0.004
0 0.179446 0.004
0 0.183492 0.004
0 0.18757 0.004
0 0.19168 0.004
0 0.195823 0.004
0 0.2 0.004
0 0 0.008
0 0.00261032 0.008
0 0.00524152 0.008
0 0.00789376 0.008
0 0.0105672 0.008
0 0.013262 0.008
0 0.0159784 0.008
0 0.0187166 0.008
0 0.0214766 0.008
0 0.0242587 0.008
0 0.027063 0.008
0 0.0298898 0.008
0 0.0327391 0.008
0 0.0356113 0.008
0 0.0385064 0.008
0 0.0414247 0.008
0 0.0443664 0.008
0 0.0473315 0.008
0 0.0503204 0.008
0 0.0533332 0.008
0 0.0563701 0.008
0 0.0594312 0.008
0 0.0625169 0.008
0 0.0656272 0.008
0 0.0687624 0.008
0 0.0719227 0.008
0 0.0751083 0.008
0 0.0783193 0.008
0 0.081556 0.008
0 0.0848186 0.008
0 0.0881073 0.008
0 0.0914223 0.008
0 0.0947638 0.008
0 0.0981321 0.008
0 0.101527 0.008
0 0.10495 0.008
0 0.108399 0.008
0 0.111877 0.008
0 0.115382 0.008
0 0.118915 0.008
0 0.122476 0.008
0 0.126066 0.008
0 0.129685 0.008
0 0.133332 0.008
0 0.137009 0.008
0 0.140715 0.008
0 0.144451 0.008
0 0.148216 0.008
0 0.152012 0.008
0 0.155838 0.008
0 0.159695 0.008
0 0.163583 0.008
0 0.167501 0.008
0 0.171451 0.008
0 0.175433 0.008
0 0.179446 0.008
0 0.183492 0.008
0 0.18757 0.008
0 0.19168 0.008
0 0.195823 0.008
0 0.2 0.008
0 0 0.012
0 0.00261032 0.012
0 0.00524152 0.012
0 0.00789376 0.012
0 0.0105672 0.012
0 0.013262 0.012
0 0.0159784 0.012
0 0.0187166 0.012
0 0.0214766 0.012
0 0.0242587 0.012
0 0.027063 0.012
0 0.0298898 0.012
0 0.0327391 0.012
0 0.0356113 0.012
0 0.0385064 0.012
0 0.0414247 0.012
0 0.0443664 0.012
0 0.0473315 0.012
0 0.0503204 0.012
0 0.0533332 0.012
0 0.0563701 0.012
0 0.0594312 0.012
0 0.0625169 0.012
0 0.0656272 0.012
0 0.0687624 0.012
0 0.0719227 0.012
0 0.0751083 0.012
0 0.0783193 0.012
0 0.081556 0.012
0 0.0848186 0.012
0 0.0881073 0.012
0 0.0914223 0.012
0 0.0947638 0.012
0 0.0981321 0.012
0 0.101527 0.012
0 0.10495 0.012
0 0.108399 0.012
0 0.111877 0.012
0 0.115382 0.012
0 0.118915 0.012
0 0.122476 0.012
0 0.126066 0.012
0 0.129685 0.012
0 0.133332 0.012
0 0.137009 0.012
0 0.140715 0.012
0 0.144451 0.012
0 0.148216 0.012
0 0.152012 0.012
0 0.155838 0.012
0 0.159695 0.012
0 0.163583 0.012
0 0.167501 0.012
0 0.171451 0.012
0 0.175433 0.012
0 0.179446 0.012
0 0.183492 0.012
0 0.18757 0.012
0 0.19168 0.012
0 0.195823 0.012
0 0.2 0.012
0 0 0.016
0 0.00261032 0.016
0 0.00524152 0.016
0 0.00789376 0.016
0 0.0105672 0.016
0 0.013262 0.016
0 0.0159784 0.016
0 0.0187166 0.016
0 0.0214766 0.016
0 0.0242587 0.016
0 0.027063 0.016
0 0.0298898 0.016
0 0.0327391 0.016
0 0.0356113 0.016
0 0.0385064 0.016
0 0.0414247 0.016
0 0.0443664 0.016
0 0.0473315 0.016
0 0.0503204 0.016
0 0.0533332 0.016
0 0.0563701 0.016
0 0.0594312 0.016
0 0.0625169 0.016
0 0.0656272 0.016
0 0.0687624 0.016
0 0.0719227 0.016
0 0.0751083 0.016
0 0.0783193 0.016
0 0.081556 0.016
0 0.0848186 0.016
0 0.0881073 0.016
0 0.0914223 0.016
0 0.0947638 0.016
0 0.0981321 0.016
0 0.101527 0.016
0 0.10495 0.016
0 0.108399 0.016
0 0.111877 0.016
0 0.115382 0.016
0 0.118915 0.016
0 0.122476 0.016
0 0.126066 0.016
0 0.129685 0.016
0 0.133332 0.016
0 0.137009 0.016
0 0.140715 0.016
0 0.144451 0.016
0 0.148216 0.016
0 0.152012 0.016
0 0.155838 0.016
0 0.159695 0.016
0 0.163583 0.016
0 0.167501 0.016
0 0.171451 0.016
0 0.175433 0.016
0 0.179446 0.016
0 0.183492 0.016
0 0.18757 0.016
0 0.19168 0.016
0 0.195823 0.016
0 0.2 0.016
0 0 0.02
0 0.00261032 0.02
0 0.00524152 0.02
0 0.00789376 0.02
0 0.0105672 0.02
0 0.013262 0.02
0 0.0159784 0.02
0 0.0187166 0.02
0 0.0214766 0.02
0 0.0242587 0.02
0 0.027063 0.02
0 0.0298898 0.02
0 0.0327391 0.02
0 0.0356113 0.02
0 0.0385064 0.02
0 0.0414247 0.02
0 0.0443664 0.02
0 0.0473315 0.02
0 0.0503204 0.02
0 0.0533332 0.02
0 0.0563701 0.02
0 0.0594312 0.02
0 0.0625169 0.02
0 0.0656272 0.02
0 0.0687624 0.02
0 0.0719227 0.02
0 0.0751083 0.02
0 0.0783193 0.02
0 0.081556 0.02
0 0.0848186 0.02
0 0.0881073 0.02
0 0.0914223 0.02
0 0.0947638 0.02
0 0.0981321 0.02
0 0.101527 0.02
0 0.10495 0.02
0 0.108399 0.02
0 0.111877 0.02
0 0.115382 0.02
0 0.118915 0.02
0 0.122476 0.02
0 0.126066 0.02
0 0.129685 0.02
0 0.133332 0.02
0 0.137009 0.02
0 0.140715 0.02
0 0.144451 0.02
0 0.148216 0.02
0 0.152012 0.02
0 0.155838 0.02
0 0.159695 0.02
0 0.163583 0.02
0 0.167501 0.02
0 0.171451 0.02
0 0.175433 0.02
0 0.179446 0.02
0 0.183492 0.02
0 0.18757 0.02
0 0.19168 0.02
0 0.195823 0.02
0 0.2 0.02
0 0 0.024
0 0.00261032 0.024
0 0.00524152 0.024
0 0.00789376 0.024
0 0.0105672 0.024
0 0.013262 0.024
0 0.0159784 0.024
0 0.0187166 0.024
0 0.0214766 0.024
0 0.0242587 0.024
0 0.027063 0.024
0 0.0298898 0.024
0 0.0327391 0.024
0 0.0356113 0.024
0 0.0385064 0.024
0 0.0414247 0.024
0 0.0443664 0.024
0 0.0473315 0.024
0 0.0503204 0.024
0 0.0533332 0.024
0 0.0563701 0.024
0 0.0594312 0.024
0 0.0625169 0.024
0 0.0656272 0.024
0 0.0687624 0.024
0 0.0719227 0.024
0 0.0751083 0.024
0 0.0783193 0.024
0 0.081556 0.024
0 0.0848186 0.024
0 0.0881073 0.024
0 0.0914223 0.024
0 0.0947638 0.024
0 0.0981321 0.024
0 0.101527 0.024
0 0.10495 0.024
0 0.108399 0.024
0 0.111877 0.024
0 0.115382 0.024
0 0.118915 0.024
0 0.122476 0.024
0 0.126066 0.024
0 0.129685 0.024
0 0.133332 0.024
0 0.137009 0.024
0 0.140715 0.024
0 0.144451 0.024
0 0.148216 0.024
0 0.152012 0.024
0 0.155838 0.024
0 0.159695 0.024
0 0.163583 0.024
0 0.167501 0.024
0 0.171451 0.024
0 0.175433 0.024
0 0.179446 0.024
0 0.183492 0.024
0 0.18757 0.024
0 0.19168 0.024
0 0.195823 0.024
0 0.2 0.024
0 0 0.028
0 0.00261032 0.028
0 0.00524152 0.028
0 0.00789376 0.028
0 0.0105672 0.028
0 0.013262 0.028
0 0.0159784 0.028
0 0.0187166 0.028
0 0.0214766 0.028
0 0.0242587 0.028
0 0.027063 0.028
0 0.0298898 0.028
0 0.0327391 0.028
0 0.0356113 0.028
0 0.0385064 0.028
0 0.0414247 0.028
0 0.0443664 0.028
0 0.0473315 0.028
0 0.0503204 0.028
0 0.0533332 0.028
0 0.0563701 0.028
0 0.0594312 0.028
0 0.0625169 0.028
0 0.0656272 0.028
0 0.0687624 0.028
0 0.0719227 0.028
0 0.0751083 0.028
0 0.0783193 0.028
0 0.081556 0.028
0 0.0848186 0.028
0 0.0881073 0.028
0 0.0914223 0.028
0 0.0947638 0.028
0 0.0981321 0.028
0 0.101527 0.028
0 0.10495 0.028
0 0.108399 0.028
0 0.111877 0.028
0 0.115382 0.028
0 0.118915 0.028
0 0.122476 0.028
0 0.126066 0.028
0 0.129685 0.028
0 0.133332 0.028
0 0.137009 0.028
0 0.140715 0.028
0 0.144451 0.028
0 0.148216 0.028
0 0.152012 0.028
0 0.155838 0.028
0 0.159695 0.028
0 0.163583 0.028
0 0.167501 0.028
0 0.171451 0.028
0 0.175433 0.028
0 0.179446 0.028
0 0.183492 0.028
0 0.18757 0.028
0 0.19168 0.028
0 0.195823 0.028
0 0.2 0.028
0 0 0.032
0 0.00261032 0.032
0 0.00524152 0.032
0 0.00789376 0.032
0 0.0105672 0.032
0 0.013262 0.032
0 0.0159784 0.032
0 0.0187166 0.032
0 0.0214766 0.032
0 0.0242587 0.032
0 0.027063 0.032
0 0.0298898 0.032
0 0.0327391 0.032
0 0.0356113 0.032
0 0.0385064 0.032
0 0.0414247 0.032
0 0.0443664 0.032
0 0.0473315 0.032
0 0.0503204 0.032
0 0.0533332 0.032
0 0.0563701 0.032
0 0.0594312 0.032
0 0.0625169 0.032
0 0.0656272 0.032
0 0.0687624 0.032
0 0.0719227 0.032
0 0.0751083 0.032
0 0.0783193 0.032
0 0.081556 0.032
0 0.0848186 0.032
0 0.0881073 0.032
0 0.0914223 0.032
0 0.0947638 0.032
0 0.0981321 0.032
0 0.101527 0.032
0 0.10495 0.032
0 0.108399 0.032
0 0.111877 0.032
0 0.115382 0.032
0 0.118915 0.032
0 0.122476 0.032
0 0.126066 0.032
0 0.129685 0.032
0 0.133332 0.032
0 0.137009 0.032
0 0.140715 0.032
0 0.144451 0.032
0 0.148216 0.032
0 0.152012 0.032
0 0.155838 0.032
0 0.159695 0.032
0 0.163583 0.032
0 0.167501 0.032
0 0.171451 0.032
0 0.175433 0.032
0 0.179446 0.032
0 0.183492 0.032
0 0.18757 0.032
0 0.19168 0.032
0 0.195823 0.032
0 0.2 0.032
0 0 0.036
0 0.00261032 0.036
0 0.00524152 0.036
0 0.00789376 0.036
0 0.0105672 0.036
0 0.013262 0.036
0 0.0159784 0.036
0 0.0187166 0.036
0 0.0214766 0.036
0 0.0242587 0.036
0 0.027063 0.036
0 0.0298898 0.036
0 0.0327391 0.036
0 0.0356113 0.036
0 0.0385064 0.036
0 0.0414247 0.036
0 0.0443664 0.036
0 0.0473315 0.036
0 0.0503204 0.036
0 0.0533332 0.036
0 0.0563701 0.036
0 0.0594312 0.036
0 0.0625169 0.036
0 0.0656272 0.036
0 0.0687624 0.036
0 0.0719227 0.036
0 0.0751083 0.036
0 0.0783193 0.036
0 0.081556 0.036
0 0.0848186 0.036
0 0.0881073 0.036
0 0.0914223 0.036
0 0.0947638 0.036
0 0.0981321 0.036
0 0.101527 0.036
0 0.10495 0.036
0 0.108399 0.036
0 0.111877 0.036
0 0.115382 0.036
0 0.118915 0.036
0 0.122476 0.036
[...]
CELL_DATA 27550
FIELD attributes 1
p 1 27550 float
61.3623 61.3623 60.8746 60.8746 60.4304 60.4304 59.5104 59.5104 58.0732 58.0732
56.3325 56.3325 54.5289 54.5289 52.8323 52.8323 51.3477 51.3477 50.1316 50.1316
49.2103 49.2103 48.5902 48.5902 48.2652 48.2652 48.2214 48.2214 48.44 48.44
48.9001 48.9001 49.5796 49.5796 50.4562 50.4562 51.5086 51.5086 52.7163 52.7163
54.0605 54.0605 55.5236 55.5236 57.0898 57.0898 58.7446 58.7446 60.4753 60.4753
62.2706 62.2706 64.1203 64.1203 66.0158 66.0158 67.9493 67.9493 69.9141 69.9141
71.9048 71.9048 73.9163 73.9163 75.9446 75.9446 77.9858 77.9858 80.0367 80.0367
82.0938 82.0938 84.1541 84.1541 86.2143 86.2143 88.2712 88.2712 90.3213 90.3213
92.361 92.361 94.3866 94.3866 96.3945 96.3945 98.3806 98.3806 100.34 100.34
102.269 102.269 104.159 104.159 106.005 106.005 107.781 107.781 109.502 109.502
111.063 111.063 112.602 112.602 113.652 113.652 115.015 115.015 114.661 114.661
116.109 116.109 111.542 111.542 112.853 112.853 93.3121 93.3121 55.1205 55.1205
61.2721 61.2721 60.7813 60.7813 60.342 60.342 59.4192 59.4192 57.9794 57.9794
56.2367 56.2367 54.4321 54.4321 52.7353 52.7353 51.2514 51.2514 50.0365 50.0365
49.1173 49.1173 48.4997 48.4997 48.1777 48.1777 48.1371 48.1371 48.3593 48.3593
48.8231 48.8231 49.5062 49.5062 50.3866 50.3866 51.4427 51.4427 52.6541 52.6541
54.0017 54.0017 55.4682 55.4682 57.0376 57.0376 58.6954 58.6954 60.429 60.429
62.227 62.227 64.0793 64.0793 65.9772 65.9772 67.9129 67.9129 69.8799 69.8799
71.8725 71.8725 73.886 73.886 75.916 75.916 77.9591 77.9591 80.0116 80.0116
82.0704 82.0704 84.1323 84.1323 86.1941 86.1941 88.2527 88.2527 90.3044 90.3044
92.3459 92.3459 94.3734 94.3734 96.3833 96.3833 98.3715 98.3715 100.334 100.334
102.265 102.265 104.157 104.157 106.006 106.006 107.785 107.785 109.509 109.509
111.073 111.073 112.617 112.617 113.67 113.67 115.041 115.041 114.686 114.686
116.147 116.147 111.572 111.572 112.911 112.911 93.3419 93.3419 55.214 55.214
61.0902 61.0902 60.5966 60.5966 60.1617 60.1617 59.2356 59.2356 57.7915 57.7915
56.045 56.045 54.2383 54.2383 52.5409 52.5409 51.0579 51.0579 49.8456 49.8456
48.9302 48.9302 48.3176 48.3176 48.0016 48.0016 47.9675 47.9675 48.1968 48.1968
48.6679 48.6679 49.3586 49.3586 50.2464 50.2464 51.3099 51.3099 52.5285 52.5285
53.8832 53.8832 55.3564 55.3564 56.9321 56.9321 58.5961 58.5961 60.3354 60.3354
62.1388 62.1388 63.9962 63.9962 65.8988 65.8988 67.839 67.839 69.8102 69.8102
71.8068 71.8068 73.824 73.824 75.8577 75.8577 77.9041 77.9041 79.96 79.96
82.022 82.022 84.0872 84.0872 86.1523 86.1523 88.2141 88.2141 90.2692 90.2692
92.3142 92.3142 94.3454 94.3454 96.3592 96.3592 98.3516 98.3516 100.318 100.318
102.255 102.255 104.152 104.152 106.007 106.007 107.792 107.792 109.522 109.522
111.091 111.091 112.646 112.646 113.705 113.705 115.088 115.088 114.739 114.739
116.218 116.218 111.642 111.642 113.013 113.013 93.4298 93.4298 55.3366 55.3366
60.814 60.814 60.3177 60.3177 59.8866 59.8866 58.9564 58.9564 57.5067 57.5067
55.7549 55.7549 53.9451 53.9451 52.2467 52.2467 50.7654 50.7654 49.557 49.557
48.6476 48.6476 48.0427 48.0427 47.7356 47.7356 47.7116 47.7116 47.9515 47.9515
48.4338 48.4338 49.1357 49.1357 50.0349 50.0349 51.1096 51.1096 52.3392 52.3392
53.7044 53.7044 55.1877 55.1877 56.7731 56.7731 58.4462 58.4462 60.1942 60.1942
62.0057 62.0057 63.8707 63.8707 65.7804 65.7804 67.7274 67.7274 69.7049 69.7049
71.7074 71.7074 73.7302 73.7302 75.7693 75.7693 77.8209 77.8209 79.8817 79.8817
81.9486 81.9486 84.0186 84.0186 86.0885 86.0885 88.1552 88.1552 90.2154 90.2154
92.2657 92.2657 94.3024 94.3024 96.322 96.322 98.3207 98.3207 100.294 100.294
102.238 102.238 104.143 104.143 106.006 106.006 107.801 107.801 109.54 109.54
111.12 111.12 112.687 112.687 113.759 113.759 115.158 115.158 114.819 114.819
116.324 116.324 111.749 111.749 113.165 113.165 93.5627 93.5627 55.5262 55.5262
60.442 60.442 59.9425 59.9425 59.5148 59.5148 58.5794 58.5794 57.1226 57.1226
55.3638 55.3638 53.5498 53.5498 51.8503 51.8503 50.3714 50.3714 49.1685 49.1685
48.2673 48.2673 47.6728 47.6728 47.378 47.378 47.3675 47.3675 47.6219 47.6219
48.1192 48.1192 48.8365 48.8365 49.7509 49.7509 50.8407 50.8407 52.0849 52.0849
53.4643 53.4643 54.9612 54.9612 56.5595 56.5595 58.2448 58.2448 60.0043 60.0043
61.8266 61.8266 63.7018 63.7018 65.6211 65.6211 67.577 67.577 69.5629 69.5629
71.5733 71.5733 73.6036 73.6036 75.6497 75.6497 77.7081 77.7081 79.7755 79.7755
81.8489 81.8489 83.9252 83.9252 86.0016 86.0016 88.0748 88.0748 90.1418 90.1418
92.199 92.199 94.2431 94.2431 96.2705 96.2705 98.2776 98.2776 100.26 100.26
102.213 102.213 104.129 104.129 106.004 106.004 107.81 107.81 109.564 109.564
111.158 111.158 112.742 112.742 113.829 113.829 115.251 115.251 114.927 114.927
116.463 116.463 111.895 111.895 113.365 113.365 93.7475 93.7475 55.7733 55.7733
59.9671 59.9671 59.4637 59.4637 59.0392 59.0392 58.0985 58.0985 56.633 56.633
54.866 54.866 53.047 53.047 51.3466 51.3466 49.871 49.871 48.6754 48.6754
47.7849 47.7849 47.204 47.204 46.9249 46.9249 46.9318 46.9318 47.2048 47.2048
47.7212 47.7212 48.4579 48.4579 49.3918 49.3918 50.5006 50.5006 51.7634 51.7634
53.1607 53.1607 54.6747 54.6747 56.2893 56.2893 57.9901 57.9901 59.7641 59.7641
61.6 61.6 63.4879 63.4879 65.4191 65.4191 67.3861 67.3861 69.3825 69.3825
71.4027 71.4027 73.4423 73.4423 75.4973 75.4973 77.5642 77.5642 79.6398 79.6398
81.7212 81.7212 83.8055 83.8055 85.8898 85.8898 87.9712 87.9712 90.0464 90.0464
92.1124 92.1124 94.1657 94.1657 96.2028 96.2028 98.2204 98.2204 100.214 100.214
102.18 102.18 104.109 104.109 105.998 105.998 107.82 107.82 109.591 109.591
111.203 111.203 112.808 112.808 113.917 113.917 115.366 115.366 115.063 115.063
116.636 116.636 112.082 112.082 113.616 113.616 93.9836 93.9836 56.0845 56.0845
59.3893 59.3893 58.883 58.883 58.4594 58.4594 57.5102 57.5102 56.0347 56.0347
54.2578 54.2578 52.4335 52.4335 50.7324 50.7324 49.2615 49.2615 48.0751 48.0751
47.1982 47.1982 46.6341 46.6341 46.3745 46.3745 46.4029 46.4029 46.6986 46.6986
47.2385 47.2385 47.999 47.999 48.9565 48.9565 50.0886 50.0886 51.3739 51.3739
52.7929 52.7929 54.3277 54.3277 55.9619 55.9619 57.6812 57.6812 59.4727 59.4727
61.3249 61.3249 63.2281 63.2281 65.1736 65.1736 67.1539 67.1539 69.1627 69.1627
71.1947 71.1947 73.2453 73.2453 75.3108 75.3108 77.3877 77.3877 79.4731 79.4731
81.564 81.564 83.6577 83.6577 85.7515 85.7515 87.8425 87.8425 89.9277 89.9277
92.004 92.004 94.0683 94.0683 96.1172 96.1172 98.1473 98.1473 100.154 100.154
102.135 102.135 104.08 104.08 105.987 105.987 107.828 107.828 109.62 109.62
111.254 111.254 112.886 112.886 114.021 114.021 115.503 115.503 115.228 115.228
116.845 116.845 112.31 112.31 113.921 113.921 94.2743 94.2743 56.4655 56.4655
58.6916 58.6916 58.1808 58.1808 57.7605 57.7605 56.8063 56.8063 55.3183 55.3183
53.5304 53.5304 51.6995 51.6995 49.9981 49.9981 48.5332 48.5332 47.3585 47.3585
46.4982 46.4982 45.9547 45.9547 45.7189 45.7189 45.7732 45.7732 46.0963 46.0963
46.6645 46.6645 47.4534 47.4534 48.4392 48.4392 49.5989 49.5989 50.9111 50.9111
52.3558 52.3558 53.9151 53.9151 55.5726 55.5726 57.3137 57.3137 59.1257 59.1257
60.9971 60.9971 62.9182 62.9182 64.8803 64.8803 66.8762 66.8762 68.8996 68.8996
70.9451 70.9451 73.0086 73.0086 75.0862 75.0862 77.1748 77.1748 79.2714 79.2714
81.3734 81.3734 83.478 83.478 85.5828 85.5828 87.685 87.685 89.7817 89.7817
91.8701 91.8701 93.9471 93.9471 96.0097 96.0097 98.0545 98.0545 100.078 100.078
102.076 102.076 104.04 104.04 105.968 105.968 107.832 107.832 109.649 109.649
111.31 111.31 112.973 112.973 114.141 114.141 115.66 115.66 115.421 115.421
117.09 117.09 112.581 112.581 114.281 114.281 94.6215 94.6215 56.92 56.92
57.8839 57.8839 57.3707 57.3707 56.9475 56.9475 55.9785 55.9785 54.4775 54.4775
52.6779 52.6779 50.8414 50.8414 49.1412 49.1412 47.6845 47.6845 46.5247 46.5247
45.6846 45.6846 45.166 45.166 44.9584 44.9584 45.0435 45.0435 45.3989 45.3989
46.0002 46.0002 46.8225 46.8225 47.8412 47.8412 49.0332 49.0332 50.3764 50.3764
51.851 51.851 53.4385 53.4385 55.1227 55.1227 56.889 56.889 58.7244 58.7244
60.6176 60.6176 62.559 62.559 64.5401 64.5401 66.5536 66.5536 68.5933 68.5933
70.6542 70.6542 72.7321 72.7321 74.8234 74.8234 76.925 76.925 79.0343 79.0343
81.1485 81.1485 83.2654 83.2654 85.3824 85.3824 87.4971 87.4971 89.6069 89.6069
91.7088 91.7088 93.8003 93.8003 95.8783 95.8783 97.94 97.94 99.9815 99.9815
101.999 101.999 103.986 103.986 105.938 105.938 107.829 107.829 109.676 109.676
111.369 111.369 113.067 113.067 114.274 114.274 115.839 115.839 115.642 115.642
117.372 117.372 112.897 112.897 114.701 114.701 95.0296 95.0296 57.4551 57.4551
56.9274 56.9274 56.4088 56.4088 55.9902 55.9902 55.0189 55.0189 53.5021 53.5021
51.6874 51.6874 49.8434 49.8434 48.1438 48.1438 46.6973 46.6973 45.5549 45.5549
44.7394 44.7394 44.2501 44.2501 44.0762 44.0762 44.1974 44.1974 44.5908 44.5908
45.2308 45.2308 46.0919 46.0919 47.1489 47.1489 48.3781 48.3781 49.7573 49.7573
51.266 51.266 52.886 52.886 54.6008 54.6008 56.3956 56.3956 58.2576 58.2576
60.1757 60.1757 62.1401 62.1401 64.1425 64.1425 66.1757 66.1757 68.2339 68.2339
70.312 70.312 72.406 72.406 74.5125 74.5125 76.6287 76.6287 78.7519 78.7519
80.8799 80.8799 83.0104 83.0104 85.1412 85.1412 87.2699 87.2699 89.3941 89.3941
91.5114 91.5114 93.6192 93.6192 95.7147 95.7147 97.7954 97.7954 99.8577 99.8577
101.899 101.899 103.91 103.91 105.89 105.89 107.812 107.812 109.693 109.693
111.424 111.424 113.165 113.165 114.417 114.417 116.035 116.035 115.89 115.89
117.691 117.691 113.258 113.258 115.183 115.183 95.5015 95.5015 58.0777 58.0777
55.8521 55.8521 55.3315 55.3315 54.906 54.906 53.9111 53.9111 52.3767 52.3767
50.551 50.551 48.7023 48.7023 47.0086 47.0086 45.5758 45.5758 44.4564 44.4564
43.6702 43.6702 43.2163 43.2163 43.0815 43.0815 43.245 43.245 43.6822 43.6822
44.3668 44.3668 45.2723 45.2723 46.3729 46.3729 47.6443 47.6443 49.064 49.064
50.6113 50.6113 52.2676 52.2676 54.0164 54.0164 55.843 55.843 57.7346 57.7346
59.68 59.68 61.6697 61.6697 63.6954 63.6954 65.7502 65.7502 67.8283 67.8283
69.925 69.925 72.0363 72.0363 74.1592 74.1592 76.291 76.291 78.4292 78.4292
80.5719 80.5719 82.7169 82.7169 84.8623 84.8623 87.006 87.006 89.1459 89.1459
91.2796 91.2796 93.405 93.405 95.5196 95.5196 97.6212 97.6212 99.7064 99.7064
101.773 101.773 103.812 103.812 105.824 105.824 107.781 107.781 109.701 109.701
111.475 111.475 113.265 113.265 114.571 114.571 116.25 116.25 116.166 116.166
118.05 118.05 113.67 113.67 115.735 115.735 96.046 96.046 58.8018 58.8018
54.5863 54.5863 54.0592 54.0592 53.6376 53.6376 52.6436 52.6436 51.093 51.093
49.2466 49.2466 47.3907 47.3907 45.6993 45.6993 44.2829 44.2829 43.1889 43.1889
42.4376 42.4376 42.0247 42.0247 41.9359 41.9359 42.1483 42.1483 42.6363 42.6363
43.3722 43.3722 44.3286 44.3286 45.479 45.479 46.7985 46.7985 48.264 48.264
49.8548 49.8548 51.5521 51.5521 53.339 53.339 55.2011 55.2011 57.1256 57.1256
59.1013 59.1013 61.1189 61.1189 63.1703 63.1703 65.2488 65.2488 67.3488 67.3488
69.4658 69.4658 71.5961 71.5961 73.7368 73.7368 75.8855 75.8855 78.0401 78.0401
80.1988 80.1988 82.3597 82.3597 84.5211 84.5211 86.6813 86.6813 88.8383 88.8383
90.9903 90.9903 93.1352 93.1352 95.2711 95.2711 97.3959 97.3959 99.5069 99.5069
101.602 101.602 103.673 103.673 105.721 105.721 107.718 107.718 109.683 109.683
111.507 111.507 113.353 113.353 114.721 114.721 116.472 116.472 116.461 116.461
118.441 118.441 114.126 114.126 116.355 116.355 96.6616 96.6616 59.6306 59.6306
53.1816 53.1816 52.653 52.653 52.2259 52.2259 51.2016 51.2016 49.6247 49.6247
47.7702 47.7702 45.9129 45.9129 44.2355 44.2355 42.8424 42.8424 41.7831 41.7831
41.0743 41.0743 40.7107 40.7107 40.6757 40.6757 40.9449 40.9449 41.4912 41.4912
42.2855 42.2855 43.2995 43.2995 44.5058 44.5058 45.879 45.879 47.3956 47.3956
49.0344 49.0344 50.7765 50.7765 52.6053 52.6053 54.506 54.506 56.4659 56.4659
58.4742 58.4742 60.5216 60.5216 62.6003 62.6003 64.7037 64.7037 66.8267 66.8267
68.9647 68.9647 71.1146 71.1146 73.2736 73.2736 75.4397 75.4397 77.6109 77.6109
79.7858 79.7858 81.9627 81.9627 84.1404 84.1404 86.3173 86.3173 88.4919 88.4919
90.6625 90.6625 92.8277 92.8277 94.9857 94.9857 97.1349 97.1349 99.2732 99.2732
101.399 101.399 103.505 103.505 105.591 105.591 107.632 107.632 109.648 109.648
111.528 111.528 113.438 113.438 114.878 114.878 116.712 116.712 116.787 116.787
118.879 118.879 114.644 114.644 117.064 117.064 97.3706 97.3706 60.5957 60.5957
51.5363 51.5363 51.0006 51.0006 50.5673 50.5673 49.54 49.54 47.9514 47.9514
46.0732 46.0732 44.2104 44.2104 42.5402 42.5402 41.1722 41.1722 40.1505 40.1505
39.4902 39.4902 39.183 39.183 39.2098 39.2098 39.5442 39.5442 40.1569 40.1569
41.0176 41.0176 42.0967 42.0967 43.366 43.366 44.7993 44.7993 46.3728 46.3728
48.0649 48.0649 49.8567 49.8567 51.7313 51.7313 53.6742 53.6742 55.6728 55.6728
57.7164 57.7164 59.7961 59.7961 61.9042 61.9042 64.0344 64.0344 66.1819 66.1819
68.3425 68.3425 70.5133 70.5133 72.6919 72.6919 74.8765 74.8765 77.0655 77.0655
79.2578 79.2578 81.4521 81.4521 83.6474 83.6474 85.8425 85.8425 88.0363 88.0363
90.2275 90.2275 92.415 92.415 94.5976 94.5976 96.7742 96.7742 98.9431 98.9431
101.103 101.103 103.249 103.249 105.38 105.38 107.471 107.471 109.545 109.545
111.491 111.491 113.474 113.474 114.998 114.998 116.928 116.928 117.104 117.104
119.329 119.329 115.191 115.191 117.835 117.835 98.1503 98.1503 61.683 61.683
49.7013 49.7013 49.1639 49.1639 48.7407 48.7407 47.6881 47.6881 46.0624 46.0624
44.1775 44.1775 42.3211 42.3211 40.6767 40.6767 39.3484 39.3484 38.379 38.379
37.7812 37.7812 37.5431 37.5431 37.6441 37.6441 38.0548 38.0548 38.7445 38.7445
39.6812 39.6812 40.8342 40.8342 42.1742 42.1742 43.6746 43.6746 45.311 45.311
47.0617 47.0617 48.9075 48.9075 50.8317 50.8317 52.8199 52.8199 54.8597 54.8597
56.9406 56.9406 59.0539 59.0539 61.1924 61.1924 63.3501 63.3501 65.5225 65.5225
67.7057 67.7057 69.8972 69.8972 72.0949 72.0949 74.2975 74.2975 76.5036 76.5036
78.7125 78.7125 80.9232 80.9232 83.1352 83.1352 85.3477 85.3477 87.5597 87.5597
89.7707 89.7707 91.9798 91.9798 94.1865 94.1865 96.3902 96.3902 98.5897 98.5897
100.785 100.785 102.97 102.97 105.148 105.148 107.293 107.293 109.429 109.429
111.446 111.446 113.512 113.512 115.131 115.131 117.173 117.173 117.469 117.469
119.85 119.85 115.831 115.831 118.743 118.743 99.0714 99.0714 62.9818 62.9818
47.5694 47.5694 47.0272 47.0272 46.5715 46.5715 45.4951 45.4951 43.8627 43.8627
41.9597 41.9597 40.1039 40.1039 38.479 38.479 37.1891 37.1891 36.2754 36.2754
35.7449 35.7449 35.5839 35.5839 35.7668 35.7668 36.2626 36.2626 37.0375 37.0375
38.0581 38.0581 39.2922 39.2922 40.7095 40.7095 42.2827 42.2827 43.9869 43.9869
45.8003 45.8003 47.7036 47.7036 49.6803 49.6803 51.716 51.716 53.7987 53.7987
55.9183 55.9183 58.0663 58.0663 60.2359 60.2359 62.4216 62.4216 64.6191 64.6191
66.8252 66.8252 69.0376 69.0376 71.2547 71.2547 73.4754 73.4754 75.699 75.699
77.925 77.925 80.1529 80.1529 82.3825 82.3825 84.6135 84.6135 86.8454 86.8454
89.078 89.078 91.3111 91.3111 93.5447 93.5447 95.779 95.779 98.0135 98.0135
100.249 100.249 102.481 102.481 104.712 104.712 106.92 106.92 109.128 109.128
111.23 111.23 113.392 113.392 115.122 115.122 117.294 117.294 117.733 117.733
120.297 120.297 116.429 116.429 119.657 119.657 100.021 100.021 64.3969 64.3969
45.1435 45.1435 44.5941 44.5941 44.183 44.183 43.1085 43.1085 41.4362 41.4362
39.5263 39.5263 37.6912 37.6912 36.1104 36.1104 34.8876 34.8876 34.0546 34.0546
33.6176 33.6176 33.5561 33.5561 33.8429 33.8429 34.4428 34.4428 35.3207 35.3207
36.4407 36.4407 37.7697 37.7697 39.2764 39.2764 40.9329 40.9329 42.714 42.714
44.5979 44.5979 46.5653 46.5653 48.5998 48.5998 50.6876 50.6876 52.8168 52.8168
54.9778 54.9778 57.1626 57.1626 59.3649 59.3649 61.5796 61.5796 63.8028 63.8028
66.0318 66.0318 68.2648 68.2648 70.5007 70.5007 72.7387 72.7387 74.9785 74.9785
77.2201 77.2201 79.4635 79.4635 81.7089 81.7089 83.9562 83.9562 86.2058 86.2058
88.4577 88.4577 90.7124 90.7124 92.9706 92.9706 95.2331 95.2331 97.5003 97.5003
99.774 99.774 102.051 102.051 104.335 104.335 106.605 106.605 108.888 108.888
111.077 111.077 113.344 113.344 115.2 115.2 117.522 117.522 118.13 118.13
120.914 120.914 117.229 117.229 120.847 120.847 101.253 101.253 66.2172 66.2172
42.3382 42.3382 41.7929 41.7929 41.3063 41.3063 40.1692 40.1692 38.4865 38.4865
36.5757 36.5757 34.7561 34.7561 33.219 33.219 32.0578 32.0578 31.3073 31.3073
30.964 30.964 31.0058 31.0058 31.3995 31.3995 32.1074 32.1074 33.0911 33.0911
34.313 34.313 35.7383 35.7383 37.3348 37.3348 39.0741 39.0741 40.9308 40.9308
42.8829 42.8829 44.9115 44.9115 47.0004 47.0004 49.1362 49.1362 51.3076 51.3076
53.5054 53.5054 55.7222 55.7222 57.9521 57.9521 60.1907 60.1907 62.4346 62.4346
64.6817 64.6817 66.9306 66.9306 69.1807 69.1807 71.4318 71.4318 73.6841 73.6841
75.9379 75.9379 78.1939 78.1939 80.4525 80.4525 82.7145 82.7145 84.9804 84.9804
87.2511 87.2511 89.5277 89.5277 91.8115 91.8115 94.1044 94.1044 96.4078 96.4078
98.7247 98.7247 101.053 101.053 103.399 103.399 105.742 105.742 108.113 108.113
110.408 110.408 112.799 112.799 114.798 114.798 117.293 117.293 118.103 118.103
121.143 121.143 117.704 117.704 121.777 121.777 102.302 102.302 68.0194 68.0194
39.0434 39.0434 38.4805 38.4805 38.0948 38.0948 37.0013 37.0013 35.2992 35.2992
33.3905 33.3905 31.6228 31.6228 30.1666 30.1666 29.1193 29.1193 28.4991 28.4991
28.2997 28.2997 28.49 28.49 29.0332 29.0332 29.8873 29.8873 31.0116 31.0116
32.3663 32.3663 33.9156 33.9156 35.6265 35.6265 37.4704 37.4704 39.422 39.422
41.4594 41.4594 43.5643 43.5643 45.721 45.721 47.9167 47.9167 50.1407 50.1407
52.3845 52.3845 54.6415 54.6415 56.9063 56.9063 59.1753 59.1753 61.4456 61.4456
63.7157 63.7157 65.9848 65.9848 68.2529 68.2529 70.5202 70.5202 72.7876 72.7876
75.0557 75.0557 77.3258 77.3258 79.5989 79.5989 81.8761 81.8761 84.1587 84.1587
86.448 86.448 88.746 88.746 91.0546 91.0546 93.3765 93.3765 95.7142 95.7142
98.0721 98.0721 100.449 100.449 102.855 102.855 105.27 105.27 107.729 107.729
110.129 110.129 112.651 112.651 114.819 114.819 117.523 117.523 118.576 118.576
121.941 121.941 118.791 118.791 123.469 123.469 104.094 104.094 70.7952 70.7952
35.2106 35.2106 34.663 34.663 34.128 34.128 32.947 32.947 31.2263 31.2263
29.3465 29.3465 27.6231 27.6231 26.2489 26.2489 25.3031 25.3031 24.8036 24.8036
24.7343 24.7343 25.0592 25.0592 25.7362 25.7362 26.7196 26.7196 27.9659 27.9659
29.4334 29.4334 31.0853 31.0853 32.8882 32.8882 34.8132 34.8132 36.8353 36.8353
38.9332 38.9332 41.0891 41.0891 43.288 43.288 45.5178 45.5178 47.7688 47.7688
50.0331 50.0331 52.3049 52.3049 54.5796 54.5796 56.8542 56.8542 59.1267 59.1267
61.3961 61.3961 63.6624 63.6624 65.9261 65.9261 68.1881 68.1881 70.4496 70.4496
72.7122 72.7122 74.9773 74.9773 77.2466 77.2466 79.5217 79.5217 81.8045 81.8045
84.0971 84.0971 86.402 86.402 88.7222 88.7222 91.0616 91.0616 93.4237 93.4237
95.8147 95.8147 98.2358 98.2358 100.698 100.698 103.185 103.185 105.737 105.737
108.254 108.254 110.922 110.922 113.26 113.26 116.175 116.175 117.506 117.506
121.217 121.217 118.49 118.49 123.832 123.832 104.831 104.831 72.8783 72.8783
30.4598 30.4598 29.8738 29.8738 29.5558 29.5558 28.442 28.442 26.7483 26.7483
24.9185 24.9185 23.3239 23.3239 22.1203 22.1203 21.3809 21.3809 21.1056 21.1056
21.2679 21.2679 21.8231 21.8231 22.7228 22.7228 23.9174 23.9174 25.3607 25.3607
27.0099 27.0099 28.8275 28.8275 30.7802 30.7802 32.8397 32.8397 34.9816 34.9816
37.1857 37.1857 39.435 39.435 41.7159 41.7159 44.0172 44.0172 46.3301 46.3301
48.6481 48.6481 50.9662 50.9662 53.2808 53.2808 55.5897 55.5897 57.8918 57.8918
60.1869 60.1869 62.4757 62.4757 64.7594 64.7594 67.0395 67.0395 69.3179 69.3179
71.5967 71.5967 73.8781 73.8781 76.1643 76.1643 78.4576 78.4576 80.7606 80.7606
83.076 83.076 85.4072 85.4072 87.758 87.758 90.1335 90.1335 92.5387 92.5387
94.9812 94.9812 97.4643 97.4643 100.002 100.002 102.582 102.582 105.248 105.248
107.904 107.904 110.751 110.751 113.325 113.325 116.555 116.555 118.256 118.256
122.497 122.497 120.258 120.258 126.653 126.653 107.88 107.88 77.7196 77.7196