# vtk DataFile Version 2.0
sampleSurface
ASCII
DATASET POLYDATA
POINTS 14016 float
0.2 0 0.1
0.2 0.00261032 0.1
0.2 0.00524152 0.1
0.2 0.00789376 0.1
0.2 0.0105672 0.1
0.2 0.013262 0.1
0.2 0.0159784 0.1
0.2 0.0187166 0.1
0.2 0.0214766 0.1
0.2 0.0242587 0.1
0.2 0.027063 0.1
0.2 0.0298898 0.1
0.2 0.0327391 0.1
0.2 0.0356113 0.1
0.2 0.0385064 0.1
0.2 0.0414247 0.1
0.2 0.0443664 0.1
0.2 0.0473315 0.1
0.2 0.0503204 0.1
0.2 0.0533332 0.1
0.2 0.0563701 0.1
0.2 0.0594312 0.1
0.2 0.0625169 0.1
0.2 0.0656272 0.1
0.2 0.0687624 0.1
0.2 0.0719227 0.1
0.2 0.0751083 0.1
0.2 0.0783193 0.1
0.2 0.081556 0.1
0.2 0.0848186 0.1
0.2 0.0881073 0.1
0.2 0.0914223 0.1
0.2 0.0947638 0.1
0.2 0.0981321 0.1
0.2 0.101527 0.1
0.2 0.10495 0.1
0.2 0.108399 0.1
0.2 0.111877 0.1
0.2 0.115382 0.1
0.2 0.118915 0.1
0.2 0.122476 0.1
0.2 0.126066 0.1
0.2 0.129685 0.1
0.2 0.133332 0.1
0.2 0.137009 0.1
0.2 0.140715 0.1
0.2 0.144451 0.1
0.2 0.148216 0.1
0.2 0.152012 0.1
0.2 0.155838 0.1
0.2 0.159695 0.1
0.2 0.163583 0.1
0.2 0.167501 0.1
0.2 0.171451 0.1
0.2 0.175433 0.1
0.2 0.179446 0.1
0.2 0.183492 0.1
0.2 0.18757 0.1
0.2 0.19168 0.1
0.2 0.195823 0.1
0.2 0.2 0.1
0.2 0 0.101198
0.2 0.00261032 0.101198
0.2 0.00524152 0.101198
0.2 0.00789376 0.101198
0.2 0.0105672 0.101198
0.2 0.013262 0.101198
0.2 0.0159784 0.101198
0.2 0.0187166 0.101198
0.2 0.0214766 0.101198
0.2 0.0242587 0.101198
0.2 0.027063 0.101198
0.2 0.0298898 0.101198
0.2 0.0327391 0.101198
0.2 0.0356113 0.101198
0.2 0.0385064 0.101198
0.2 0.0414247 0.101198
0.2 0.0443664 0.101198
0.2 0.0473315 0.101198
0.2 0.0503204 0.101198
0.2 0.0533332 0.101198
0.2 0.0563701 0.101198
0.2 0.0594312 0.101198
0.2 0.0625169 0.101198
0.2 0.0656272 0.101198
0.2 0.0687624 0.101198
0.2 0.0719227 0.101198
0.2 0.0751083 0.101198
0.2 0.0783193 0.101198
0.2 0.081556 0.101198
0.2 0.0848186 0.101198
0.2 0.0881073 0.101198
0.2 0.0914223 0.101198
0.2 0.0947638 0.101198
0.2 0.0981321 0.101198
0.2 0.101527 0.101198
0.2 0.10495 0.101198
0.2 0.108399 0.101198
0.2 0.111877 0.101198
0.2 0.115382 0.101198
0.2 0.118915 0.101198
0.2 0.122476 0.101198
0.2 0.126066 0.101198
0.2 0.129685 0.101198
0.2 0.133332 0.101198
0.2 0.137009 0.101198
0.2 0.140715 0.101198
0.2 0.144451 0.101198
0.2 0.148216 0.101198
0.2 0.152012 0.101198
0.2 0.155838 0.101198
0.2 0.159695 0.101198
0.2 0.163583 0.101198
0.2 0.167501 0.101198
0.2 0.171451 0.101198
0.2 0.175433 0.101198
0.2 0.179446 0.101198
0.2 0.183492 0.101198
0.2 0.18757 0.101198
0.2 0.19168 0.101198
0.2 0.195823 0.101198
0.2 0.2 0.101198
0.2 0 0.102464
0.2 0.00261032 0.102464
0.2 0.00524152 0.102464
0.2 0.00789376 0.102464
0.2 0.0105672 0.102464
0.2 0.013262 0.102464
0.2 0.0159784 0.102464
0.2 0.0187166 0.102464
0.2 0.0214766 0.102464
0.2 0.0242587 0.102464
0.2 0.027063 0.102464
0.2 0.0298898 0.102464
0.2 0.0327391 0.102464
0.2 0.0356113 0.102464
0.2 0.0385064 0.102464
0.2 0.0414247 0.102464
0.2 0.0443664 0.102464
0.2 0.0473315 0.102464
0.2 0.0503204 0.102464
0.2 0.0533332 0.102464
0.2 0.0563701 0.102464
0.2 0.0594312 0.102464
0.2 0.0625169 0.102464
0.2 0.0656272 0.102464
0.2 0.0687624 0.102464
0.2 0.0719227 0.102464
0.2 0.0751083 0.102464
0.2 0.0783193 0.102464
0.2 0.081556 0.102464
0.2 0.0848186 0.102464
0.2 0.0881073 0.102464
0.2 0.0914223 0.102464
0.2 0.0947638 0.102464
0.2 0.0981321 0.102464
0.2 0.101527 0.102464
0.2 0.10495 0.102464
0.2 0.108399 0.102464
0.2 0.111877 0.102464
0.2 0.115382 0.102464
0.2 0.118915 0.102464
0.2 0.122476 0.102464
0.2 0.126066 0.102464
0.2 0.129685 0.102464
0.2 0.133332 0.102464
0.2 0.137009 0.102464
0.2 0.140715 0.102464
0.2 0.144451 0.102464
0.2 0.148216 0.102464
0.2 0.152012 0.102464
0.2 0.155838 0.102464
0.2 0.159695 0.102464
0.2 0.163583 0.102464
0.2 0.167501 0.102464
0.2 0.171451 0.102464
0.2 0.175433 0.102464
0.2 0.179446 0.102464
0.2 0.183492 0.102464
0.2 0.18757 0.102464
0.2 0.19168 0.102464
0.2 0.195823 0.102464
0.2 0.2 0.102464
0.2 0 0.103803
0.2 0.00261032 0.103803
0.2 0.00524152 0.103803
0.2 0.00789376 0.103803
0.2 0.0105672 0.103803
0.2 0.013262 0.103803
0.2 0.0159784 0.103803
0.2 0.0187166 0.103803
0.2 0.0214766 0.103803
0.2 0.0242587 0.103803
0.2 0.027063 0.103803
0.2 0.0298898 0.103803
0.2 0.0327391 0.103803
0.2 0.0356113 0.103803
0.2 0.0385064 0.103803
0.2 0.0414247 0.103803
0.2 0.0443664 0.103803
0.2 0.0473315 0.103803
0.2 0.0503204 0.103803
0.2 0.0533332 0.103803
0.2 0.0563701 0.103803
0.2 0.0594312 0.103803
0.2 0.0625169 0.103803
0.2 0.0656272 0.103803
0.2 0.0687624 0.103803
0.2 0.0719227 0.103803
0.2 0.0751083 0.103803
0.2 0.0783193 0.103803
0.2 0.081556 0.103803
0.2 0.0848186 0.103803
0.2 0.0881073 0.103803
0.2 0.0914223 0.103803
0.2 0.0947638 0.103803
0.2 0.0981321 0.103803
0.2 0.101527 0.103803
0.2 0.10495 0.103803
0.2 0.108399 0.103803
0.2 0.111877 0.103803
0.2 0.115382 0.103803
0.2 0.118915 0.103803
0.2 0.122476 0.103803
0.2 0.126066 0.103803
0.2 0.129685 0.103803
0.2 0.133332 0.103803
0.2 0.137009 0.103803
0.2 0.140715 0.103803
0.2 0.144451 0.103803
0.2 0.148216 0.103803
0.2 0.152012 0.103803
0.2 0.155838 0.103803
0.2 0.159695 0.103803
0.2 0.163583 0.103803
0.2 0.167501 0.103803
0.2 0.171451 0.103803
0.2 0.175433 0.103803
0.2 0.179446 0.103803
0.2 0.183492 0.103803
0.2 0.18757 0.103803
0.2 0.19168 0.103803
0.2 0.195823 0.103803
0.2 0.2 0.103803
0.2 0 0.105218
0.2 0.00261032 0.105218
0.2 0.00524152 0.105218
0.2 0.00789376 0.105218
0.2 0.0105672 0.105218
0.2 0.013262 0.105218
0.2 0.0159784 0.105218
0.2 0.0187166 0.105218
0.2 0.0214766 0.105218
0.2 0.0242587 0.105218
0.2 0.027063 0.105218
0.2 0.0298898 0.105218
0.2 0.0327391 0.105218
0.2 0.0356113 0.105218
0.2 0.0385064 0.105218
0.2 0.0414247 0.105218
0.2 0.0443664 0.105218
0.2 0.0473315 0.105218
0.2 0.0503204 0.105218
0.2 0.0533332 0.105218
0.2 0.0563701 0.105218
0.2 0.0594312 0.105218
0.2 0.0625169 0.105218
0.2 0.0656272 0.105218
0.2 0.0687624 0.105218
0.2 0.0719227 0.105218
0.2 0.0751083 0.105218
0.2 0.0783193 0.105218
0.2 0.081556 0.105218
0.2 0.0848186 0.105218
0.2 0.0881073 0.105218
0.2 0.0914223 0.105218
0.2 0.0947638 0.105218
0.2 0.0981321 0.105218
0.2 0.101527 0.105218
0.2 0.10495 0.105218
0.2 0.108399 0.105218
0.2 0.111877 0.105218
0.2 0.115382 0.105218
0.2 0.118915 0.105218
0.2 0.122476 0.105218
0.2 0.126066 0.105218
0.2 0.129685 0.105218
0.2 0.133332 0.105218
0.2 0.137009 0.105218
0.2 0.140715 0.105218
0.2 0.144451 0.105218
0.2 0.148216 0.105218
0.2 0.152012 0.105218
0.2 0.155838 0.105218
0.2 0.159695 0.105218
0.2 0.163583 0.105218
0.2 0.167501 0.105218
0.2 0.171451 0.105218
0.2 0.175433 0.105218
0.2 0.179446 0.105218
0.2 0.183492 0.105218
0.2 0.18757 0.105218
0.2 0.19168 0.105218
0.2 0.195823 0.105218
0.2 0.2 0.105218
0.2 0 0.106714
0.2 0.00261032 0.106714
0.2 0.00524152 0.106714
0.2 0.00789376 0.106714
0.2 0.0105672 0.106714
0.2 0.013262 0.106714
0.2 0.0159784 0.106714
0.2 0.0187166 0.106714
0.2 0.0214766 0.106714
0.2 0.0242587 0.106714
0.2 0.027063 0.106714
0.2 0.0298898 0.106714
0.2 0.0327391 0.106714
0.2 0.0356113 0.106714
0.2 0.0385064 0.106714
0.2 0.0414247 0.106714
0.2 0.0443664 0.106714
0.2 0.0473315 0.106714
0.2 0.0503204 0.106714
0.2 0.0533332 0.106714
0.2 0.0563701 0.106714
0.2 0.0594312 0.106714
0.2 0.0625169 0.106714
0.2 0.0656272 0.106714
0.2 0.0687624 0.106714
0.2 0.0719227 0.106714
0.2 0.0751083 0.106714
0.2 0.0783193 0.106714
0.2 0.081556 0.106714
0.2 0.0848186 0.106714
0.2 0.0881073 0.106714
0.2 0.0914223 0.106714
0.2 0.0947638 0.106714
0.2 0.0981321 0.106714
0.2 0.101527 0.106714
0.2 0.10495 0.106714
0.2 0.108399 0.106714
0.2 0.111877 0.106714
0.2 0.115382 0.106714
0.2 0.118915 0.106714
0.2 0.122476 0.106714
0.2 0.126066 0.106714
0.2 0.129685 0.106714
0.2 0.133332 0.106714
0.2 0.137009 0.106714
0.2 0.140715 0.106714
0.2 0.144451 0.106714
0.2 0.148216 0.106714
0.2 0.152012 0.106714
0.2 0.155838 0.106714
0.2 0.159695 0.106714
0.2 0.163583 0.106714
0.2 0.167501 0.106714
0.2 0.171451 0.106714
0.2 0.175433 0.106714
0.2 0.179446 0.106714
0.2 0.183492 0.106714
0.2 0.18757 0.106714
0.2 0.19168 0.106714
0.2 0.195823 0.106714
0.2 0.2 0.106714
0.2 0 0.108295
0.2 0.00261032 0.108295
0.2 0.00524152 0.108295
0.2 0.00789376 0.108295
0.2 0.0105672 0.108295
0.2 0.013262 0.108295
0.2 0.0159784 0.108295
0.2 0.0187166 0.108295
0.2 0.0214766 0.108295
0.2 0.0242587 0.108295
0.2 0.027063 0.108295
0.2 0.0298898 0.108295
0.2 0.0327391 0.108295
0.2 0.0356113 0.108295
0.2 0.0385064 0.108295
0.2 0.0414247 0.108295
0.2 0.0443664 0.108295
0.2 0.0473315 0.108295
0.2 0.0503204 0.108295
0.2 0.0533332 0.108295
0.2 0.0563701 0.108295
0.2 0.0594312 0.108295
0.2 0.0625169 0.108295
0.2 0.0656272 0.108295
0.2 0.0687624 0.108295
0.2 0.0719227 0.108295
0.2 0.0751083 0.108295
0.2 0.0783193 0.108295
0.2 0.081556 0.108295
0.2 0.0848186 0.108295
0.2 0.0881073 0.108295
0.2 0.0914223 0.108295
0.2 0.0947638 0.108295
0.2 0.0981321 0.108295
0.2 0.101527 0.108295
0.2 0.10495 0.108295
0.2 0.108399 0.108295
0.2 0.111877 0.108295
0.2 0.115382 0.108295
0.2 0.118915 0.108295
0.2 0.122476 0.108295
0.2 0.126066 0.108295
0.2 0.129685 0.108295
0.2 0.133332 0.108295
0.2 0.137009 0.108295
0.2 0.140715 0.108295
0.2 0.144451 0.108295
0.2 0.148216 0.108295
0.2 0.152012 0.108295
0.2 0.155838 0.108295
0.2 0.159695 0.108295
0.2 0.163583 0.108295
0.2 0.167501 0.108295
0.2 0.171451 0.108295
0.2 0.175433 0.108295
0.2 0.179446 0.108295
0.2 0.183492 0.108295
0.2 0.18757 0.108295
0.2 0.19168 0.108295
0.2 0.195823 0.108295
0.2 0.2 0.108295
0.2 0 0.109966
0.2 0.00261032 0.109966
0.2 0.00524152 0.109966
0.2 0.00789376 0.109966
0.2 0.0105672 0.109966
0.2 0.013262 0.109966
0.2 0.0159784 0.109966
0.2 0.0187166 0.109966
0.2 0.0214766 0.109966
0.2 0.0242587 0.109966
0.2 0.027063 0.109966
0.2 0.0298898 0.109966
0.2 0.0327391 0.109966
0.2 0.0356113 0.109966
0.2 0.0385064 0.109966
0.2 0.0414247 0.109966
0.2 0.0443664 0.109966
0.2 0.0473315 0.109966
0.2 0.0503204 0.109966
0.2 0.0533332 0.109966
0.2 0.0563701 0.109966
0.2 0.0594312 0.109966
0.2 0.0625169 0.109966
0.2 0.0656272 0.109966
0.2 0.0687624 0.109966
0.2 0.0719227 0.109966
0.2 0.0751083 0.109966
0.2 0.0783193 0.109966
0.2 0.081556 0.109966
0.2 0.0848186 0.109966
[...]
CELL_DATA 27550
FIELD attributes 1
p 1 27550 float
-23.4818 -23.4818 -23.5276 -23.5276 -23.5865 -23.5865 -23.5876 -23.5876 -23.4952 -23.4952
-23.319 -23.319 -23.0819 -23.0819 -22.8084 -22.8084 -22.5192 -22.5192 -22.2309 -22.2309
-21.9565 -21.9565 -21.7057 -21.7057 -21.4853 -21.4853 -21.2996 -21.2996 -21.1506 -21.1506
-21.0394 -21.0394 -20.9679 -20.9679 -20.9353 -20.9353 -20.94 -20.94 -20.9801 -20.9801
-21.0536 -21.0536 -21.1582 -21.1582 -21.2917 -21.2917 -21.4516 -21.4516 -21.6358 -21.6358
-21.842 -21.842 -22.068 -22.068 -22.3118 -22.3118 -22.5713 -22.5713 -22.8447 -22.8447
-23.1302 -23.1302 -23.426 -23.426 -23.7306 -23.7306 -24.0423 -24.0423 -24.359 -24.359
-24.6787 -24.6787 -24.9991 -24.9991 -25.3176 -25.3176 -25.6314 -25.6314 -25.9375 -25.9375
-26.2324 -26.2324 -26.5138 -26.5138 -26.7779 -26.7779 -27.0232 -27.0232 -27.2456 -27.2456
-27.4457 -27.4457 -27.6172 -27.6172 -27.7636 -27.7636 -27.8729 -27.8729 -27.9551 -27.9551
-27.986 -27.986 -27.9912 -27.9912 -27.9207 -27.9207 -27.8406 -27.8406 -27.6432 -27.6432
-27.5021 -27.5021 -27.1682 -27.1682 -27.1245 -27.1245 -26.629 -26.629 -26.8174 -26.8174
-23.5092 -23.5092 -23.5545 -23.5545 -23.6138 -23.6138 -23.6151 -23.6151 -23.5232 -23.5232
-23.3478 -23.3478 -23.1117 -23.1117 -22.8392 -22.8392 -22.5511 -22.5511 -22.2639 -22.2639
-21.9905 -21.9905 -21.7405 -21.7405 -21.521 -21.521 -21.3365 -21.3365 -21.1879 -21.1879
-21.0773 -21.0773 -21.0063 -21.0063 -20.974 -20.974 -20.9789 -20.9789 -21.0191 -21.0191
-21.0925 -21.0925 -21.1969 -21.1969 -21.3301 -21.3301 -21.4897 -21.4897 -21.6734 -21.6734
-21.879 -21.879 -22.1043 -22.1043 -22.3474 -22.3474 -22.6061 -22.6061 -22.8786 -22.8786
-23.1631 -23.1631 -23.4579 -23.4579 -23.7615 -23.7615 -24.072 -24.072 -24.3875 -24.3875
-24.706 -24.706 -25.0252 -25.0252 -25.3424 -25.3424 -25.6547 -25.6547 -25.9594 -25.9594
-26.253 -26.253 -26.5329 -26.5329 -26.7956 -26.7956 -27.0394 -27.0394 -27.2604 -27.2604
-27.4591 -27.4591 -27.6292 -27.6292 -27.7742 -27.7742 -27.8823 -27.8823 -27.9633 -27.9633
-27.993 -27.993 -27.9974 -27.9974 -27.926 -27.926 -27.8457 -27.8457 -27.6477 -27.6477
-27.5076 -27.5076 -27.1726 -27.1726 -27.1318 -27.1318 -26.6324 -26.6324 -26.8362 -26.8362
-23.5638 -23.5638 -23.6084 -23.6084 -23.6679 -23.6679 -23.6697 -23.6697 -23.579 -23.579
-23.4053 -23.4053 -23.1712 -23.1712 -22.901 -22.901 -22.6151 -22.6151 -22.3302 -22.3302
-22.0589 -22.0589 -21.811 -21.811 -21.5932 -21.5932 -21.4104 -21.4104 -21.2631 -21.2631
-21.1538 -21.1538 -21.0836 -21.0836 -21.0519 -21.0519 -21.057 -21.057 -21.0973 -21.0973
-21.1705 -21.1705 -21.2745 -21.2745 -21.407 -21.407 -21.5657 -21.5657 -21.7484 -21.7484
-21.9528 -21.9528 -22.1768 -22.1768 -22.4183 -22.4183 -22.6754 -22.6754 -22.9461 -22.9461
-23.2287 -23.2287 -23.5215 -23.5215 -23.8229 -23.8229 -24.1311 -24.1311 -24.4443 -24.4443
-24.7604 -24.7604 -25.077 -25.077 -25.3916 -25.3916 -25.7013 -25.7013 -26.0032 -26.0032
-26.294 -26.294 -26.5711 -26.5711 -26.8308 -26.8308 -27.0718 -27.0718 -27.2899 -27.2899
-27.4857 -27.4857 -27.6529 -27.6529 -27.7953 -27.7953 -27.9007 -27.9007 -27.9794 -27.9794
-28.0068 -28.0068 -28.0095 -28.0095 -27.9365 -27.9365 -27.8557 -27.8557 -27.6569 -27.6569
-27.5181 -27.5181 -27.1828 -27.1828 -27.1462 -27.1462 -26.6447 -26.6447 -26.8652 -26.8652
-23.6451 -23.6451 -23.6888 -23.6888 -23.7482 -23.7482 -23.7508 -23.7508 -23.6619 -23.6619
-23.4908 -23.4908 -23.2599 -23.2599 -22.9929 -22.9929 -22.7104 -22.7104 -22.4289 -22.4289
-22.1609 -22.1609 -21.916 -21.916 -21.701 -21.701 -21.5205 -21.5205 -21.3753 -21.3753
-21.2677 -21.2677 -21.1988 -21.1988 -21.1679 -21.1679 -21.1734 -21.1734 -21.2137 -21.2137
-21.2866 -21.2866 -21.39 -21.39 -21.5215 -21.5215 -21.679 -21.679 -21.8601 -21.8601
-22.0627 -22.0627 -22.2846 -22.2846 -22.5239 -22.5239 -22.7785 -22.7785 -23.0465 -23.0465
-23.3262 -23.3262 -23.616 -23.616 -23.9142 -23.9142 -24.2191 -24.2191 -24.5288 -24.5288
-24.8412 -24.8412 -25.154 -25.154 -25.4647 -25.4647 -25.7704 -25.7704 -26.0682 -26.0682
-26.3548 -26.3548 -26.6277 -26.6277 -26.8831 -26.8831 -27.1198 -27.1198 -27.3336 -27.3336
-27.5251 -27.5251 -27.6882 -27.6882 -27.8265 -27.8265 -27.928 -27.928 -28.0031 -28.0031
-28.0273 -28.0273 -28.0274 -28.0274 -27.952 -27.952 -27.8703 -27.8703 -27.6706 -27.6706
-27.5336 -27.5336 -27.1983 -27.1983 -27.1674 -27.1674 -26.6641 -26.6641 -26.9042 -26.9042
-23.7518 -23.7518 -23.7946 -23.7946 -23.8538 -23.8538 -23.8574 -23.8574 -23.771 -23.771
-23.6033 -23.6033 -23.3764 -23.3764 -23.1139 -23.1139 -22.8359 -22.8359 -22.5588 -22.5588
-22.2951 -22.2951 -22.0542 -22.0542 -21.8428 -21.8428 -21.6654 -21.6654 -21.5229 -21.5229
-21.4176 -21.4176 -21.3504 -21.3504 -21.3205 -21.3205 -21.3266 -21.3266 -21.3669 -21.3669
-21.4394 -21.4394 -21.5419 -21.5419 -21.6722 -21.6722 -21.8279 -21.8279 -22.007 -22.007
-22.2072 -22.2072 -22.4264 -22.4264 -22.6627 -22.6627 -22.914 -22.914 -23.1785 -23.1785
-23.4544 -23.4544 -23.7401 -23.7401 -24.0341 -24.0341 -24.3345 -24.3345 -24.6396 -24.6396
-24.9472 -24.9472 -25.2551 -25.2551 -25.5607 -25.5607 -25.8611 -25.8611 -26.1535 -26.1535
-26.4346 -26.4346 -26.7018 -26.7018 -26.9517 -26.9517 -27.1826 -27.1826 -27.3907 -27.3907
-27.5767 -27.5767 -27.7342 -27.7342 -27.8672 -27.8672 -27.9636 -27.9636 -28.0341 -28.0341
-28.0539 -28.0539 -28.0506 -28.0506 -27.9723 -27.9723 -27.8893 -27.8893 -27.6886 -27.6886
-27.5538 -27.5538 -27.219 -27.219 -27.1949 -27.1949 -26.6907 -26.6907 -26.9532 -26.9532
-23.8831 -23.8831 -23.925 -23.925 -23.9835 -23.9835 -23.9885 -23.9885 -23.905 -23.905
-23.7415 -23.7415 -23.5196 -23.5196 -23.2625 -23.2625 -22.9901 -22.9901 -22.7185 -22.7185
-22.4601 -22.4601 -22.2241 -22.2241 -22.0172 -22.0172 -21.8436 -21.8436 -21.7044 -21.7044
-21.6018 -21.6018 -21.5366 -21.5366 -21.5081 -21.5081 -21.515 -21.515 -21.5553 -21.5553
-21.6273 -21.6273 -21.7287 -21.7287 -21.8573 -21.8573 -22.011 -22.011 -22.1875 -22.1875
-22.3847 -22.3847 -22.6006 -22.6006 -22.8331 -22.8331 -23.0803 -23.0803 -23.3404 -23.3404
-23.6116 -23.6116 -23.8924 -23.8924 -24.1811 -24.1811 -24.4761 -24.4761 -24.7755 -24.7755
-25.0772 -25.0772 -25.3789 -25.3789 -25.6781 -25.6781 -25.9721 -25.9721 -26.2579 -26.2579
-26.5322 -26.5322 -26.7926 -26.7926 -27.0354 -27.0354 -27.2594 -27.2594 -27.4606 -27.4606
-27.6396 -27.6396 -27.7903 -27.7903 -27.9168 -27.9168 -28.0069 -28.0069 -28.0717 -28.0717
-28.0862 -28.0862 -28.0788 -28.0788 -27.9969 -27.9969 -27.9124 -27.9124 -27.7105 -27.7105
-27.5783 -27.5783 -27.2447 -27.2447 -27.2285 -27.2285 -26.7243 -26.7243 -27.0109 -27.0109
-24.0364 -24.0364 -24.0773 -24.0773 -24.1357 -24.1357 -24.142 -24.142 -24.062 -24.062
-23.9035 -23.9035 -23.6875 -23.6875 -23.4368 -23.4368 -23.171 -23.171 -22.906 -22.906
-22.6538 -22.6538 -22.4237 -22.4237 -22.2219 -22.2219 -22.0529 -22.0529 -21.9176 -21.9176
-21.8182 -21.8182 -21.7554 -21.7554 -21.7285 -21.7285 -21.7361 -21.7361 -21.7765 -21.7765
-21.8478 -21.8478 -21.9479 -21.9479 -22.0746 -22.0746 -22.2258 -22.2258 -22.3992 -22.3992
-22.5929 -22.5929 -22.8048 -22.8048 -23.0328 -23.0328 -23.2752 -23.2752 -23.5301 -23.5301
-23.7958 -23.7958 -24.0707 -24.0707 -24.3533 -24.3533 -24.6418 -24.6418 -24.9344 -24.9344
-25.2291 -25.2291 -25.5236 -25.5236 -25.8154 -25.8154 -26.1017 -26.1017 -26.3797 -26.3797
-26.646 -26.646 -26.8983 -26.8983 -27.133 -27.133 -27.3489 -27.3489 -27.5418 -27.5418
-27.7128 -27.7128 -27.8556 -27.8556 -27.9744 -27.9744 -28.0571 -28.0571 -28.1153 -28.1153
-28.1237 -28.1237 -28.1114 -28.1114 -28.0254 -28.0254 -27.9391 -27.9391 -27.7361 -27.7361
-27.6067 -27.6067 -27.2748 -27.2748 -27.2677 -27.2677 -26.7645 -26.7645 -27.0766 -27.0766
-24.2116 -24.2116 -24.2509 -24.2509 -24.3086 -24.3086 -24.3166 -24.3166 -24.2406 -24.2406
-24.0877 -24.0877 -23.8784 -23.8784 -23.635 -23.635 -23.3768 -23.3768 -23.1192 -23.1192
-22.8743 -22.8743 -22.6508 -22.6508 -22.455 -22.455 -22.2911 -22.2911 -22.1603 -22.1603
-22.0645 -22.0645 -22.0044 -22.0044 -21.9792 -21.9792 -21.9877 -21.9877 -22.0281 -22.0281
-22.0986 -22.0986 -22.1972 -22.1972 -22.3217 -22.3217 -22.47 -22.47 -22.6399 -22.6399
-22.8295 -22.8295 -23.0367 -23.0367 -23.2597 -23.2597 -23.4965 -23.4965 -23.7454 -23.7454
-24.0048 -24.0048 -24.2729 -24.2729 -24.5483 -24.5483 -24.8294 -24.8294 -25.1143 -25.1143
-25.401 -25.401 -25.6872 -25.6872 -25.9705 -25.9705 -26.2481 -26.2481 -26.5171 -26.5171
-26.7744 -26.7744 -27.0175 -27.0175 -27.2429 -27.2429 -27.4495 -27.4495 -27.6331 -27.6331
-27.7949 -27.7949 -27.9287 -27.9287 -28.0389 -28.0389 -28.1133 -28.1133 -28.1639 -28.1639
-28.1654 -28.1654 -28.1477 -28.1477 -28.0571 -28.0571 -27.9688 -27.9688 -27.7647 -27.7647
-27.6386 -27.6386 -27.309 -27.309 -27.3119 -27.3119 -26.8106 -26.8106 -27.1496 -27.1496
-24.404 -24.404 -24.4419 -24.4419 -24.4995 -24.4995 -24.5093 -24.5093 -24.4377 -24.4377
-24.2911 -24.2911 -24.0893 -24.0893 -23.8541 -23.8541 -23.6044 -23.6044 -23.3552 -23.3552
-23.1183 -23.1183 -22.9022 -22.9022 -22.7131 -22.7131 -22.555 -22.555 -22.4291 -22.4291
-22.3372 -22.3372 -22.2801 -22.2801 -22.2568 -22.2568 -22.2663 -22.2663 -22.3067 -22.3067
-22.3763 -22.3763 -22.4731 -22.4731 -22.595 -22.595 -22.74 -22.74 -22.906 -22.906
-23.091 -23.091 -23.293 -23.293 -23.5102 -23.5102 -23.7408 -23.7408 -23.983 -23.983
-24.2351 -24.2351 -24.4957 -24.4957 -24.7632 -24.7632 -25.036 -25.036 -25.3122 -25.3122
-25.59 -25.59 -25.867 -25.867 -26.1408 -26.1408 -26.4086 -26.4086 -26.6678 -26.6678
-26.915 -26.915 -27.1479 -27.1479 -27.3631 -27.3631 -27.5593 -27.5593 -27.7327 -27.7327
-27.8845 -27.8845 -28.0083 -28.0083 -28.109 -28.109 -28.1744 -28.1744 -28.2167 -28.2167
-28.2107 -28.2107 -28.187 -28.187 -28.0916 -28.0916 -28.0012 -28.0012 -27.796 -27.796
-27.6735 -27.6735 -27.3468 -27.3468 -27.3605 -27.3605 -26.8619 -26.8619 -27.2292 -27.2292
-24.6147 -24.6147 -24.6508 -24.6508 -24.7069 -24.7069 -24.7185 -24.7185 -24.6517 -24.6517
-24.5121 -24.5121 -24.3186 -24.3186 -24.0924 -24.0924 -23.852 -23.852 -23.612 -23.612
-23.3839 -23.3839 -23.1759 -23.1759 -22.9942 -22.9942 -22.8423 -22.8423 -22.7217 -22.7217
-22.6342 -22.6342 -22.5802 -22.5802 -22.559 -22.559 -22.5694 -22.5694 -22.6097 -22.6097
-22.6783 -22.6783 -22.7731 -22.7731 -22.8921 -22.8921 -23.0334 -23.0334 -23.195 -23.195
-23.3748 -23.3748 -23.571 -23.571 -23.7819 -23.7819 -24.0055 -24.0055 -24.2402 -24.2402
-24.4844 -24.4844 -24.7366 -24.7366 -24.9954 -24.9954 -25.259 -25.259 -25.5257 -25.5257
-25.7936 -25.7936 -26.0605 -26.0605 -26.3239 -26.3239 -26.5811 -26.5811 -26.8294 -26.8294
-27.0656 -27.0656 -27.2874 -27.2874 -27.4914 -27.4914 -27.6765 -27.6765 -27.8388 -27.8388
-27.9796 -27.9796 -28.0928 -28.0928 -28.1832 -28.1832 -28.2388 -28.2388 -28.2723 -28.2723
-28.2583 -28.2583 -28.2283 -28.2283 -28.1278 -28.1278 -28.0352 -28.0352 -27.8291 -27.8291
-27.7106 -27.7106 -27.3872 -27.3872 -27.4124 -27.4124 -26.9174 -26.9174 -27.3143 -27.3143
-24.8355 -24.8355 -24.8704 -24.8704 -24.9267 -24.9267 -24.9405 -24.9405 -24.8787 -24.8787
-24.7463 -24.7463 -24.5616 -24.5616 -24.3452 -24.3452 -24.1147 -24.1147 -23.8847 -23.8847
-23.666 -23.666 -23.4668 -23.4668 -23.2928 -23.2928 -23.1477 -23.1477 -23.0328 -23.0328
-22.9499 -22.9499 -22.8992 -22.8992 -22.8802 -22.8802 -22.8915 -22.8915 -22.9317 -22.9317
-22.999 -22.999 -23.0915 -23.0915 -23.2074 -23.2074 -23.3446 -23.3446 -23.5013 -23.5013
-23.6755 -23.6755 -23.8654 -23.8654 -24.0693 -24.0693 -24.2853 -24.2853 -24.512 -24.512
-24.7476 -24.7476 -24.9907 -24.9907 -25.24 -25.24 -25.4937 -25.4937 -25.7502 -25.7502
-26.0075 -26.0075 -26.2635 -26.2635 -26.5158 -26.5158 -26.7616 -26.7616 -26.9983 -26.9983
-27.2228 -27.2228 -27.4328 -27.4328 -27.625 -27.625 -27.7983 -27.7983 -27.9489 -27.9489
-28.0782 -28.0782 -28.1802 -28.1802 -28.26 -28.26 -28.3054 -28.3054 -28.3298 -28.3298
-28.3075 -28.3075 -28.271 -28.271 -28.1654 -28.1654 -28.0707 -28.0707 -27.864 -27.864
-27.7498 -27.7498 -27.4304 -27.4304 -27.4676 -27.4676 -26.977 -26.977 -27.4041 -27.4041
-25.0714 -25.0714 -25.1042 -25.1042 -25.1581 -25.1581 -25.1737 -25.1737 -25.1175 -25.1175
-24.9931 -24.9931 -24.818 -24.818 -24.612 -24.612 -24.3923 -24.3923 -24.1727 -24.1727
-23.9641 -23.9641 -23.7742 -23.7742 -23.6085 -23.6085 -23.4704 -23.4704 -23.3615 -23.3615
-23.2833 -23.2833 -23.2361 -23.2361 -23.2192 -23.2192 -23.2314 -23.2314 -23.2712 -23.2712
-23.3371 -23.3371 -23.4271 -23.4271 -23.5394 -23.5394 -23.6721 -23.6721 -23.8234 -23.8234
-23.9914 -23.9914 -24.1744 -24.1744 -24.3707 -24.3707 -24.5785 -24.5785 -24.7964 -24.7964
-25.0226 -25.0226 -25.2559 -25.2559 -25.4949 -25.4949 -25.7379 -25.7379 -25.9833 -25.9833
-26.2292 -26.2292 -26.4735 -26.4735 -26.7138 -26.7138 -26.9475 -26.9475 -27.1719 -27.1719
-27.3839 -27.3839 -27.5815 -27.5815 -27.7612 -27.7612 -27.9221 -27.9221 -28.0605 -28.0605
-28.1779 -28.1779 -28.2682 -28.2682 -28.337 -28.337 -28.372 -28.372 -28.3869 -28.3869
-28.3563 -28.3563 -28.3132 -28.3132 -28.2026 -28.2026 -28.1059 -28.1059 -27.899 -27.899
-27.7894 -27.7894 -27.4745 -27.4745 -27.5241 -27.5241 -27.0389 -27.0389 -27.496 -27.496
-25.3085 -25.3085 -25.3406 -25.3406 -25.3953 -25.3953 -25.4135 -25.4135 -25.3624 -25.3624
-25.2459 -25.2459 -25.0803 -25.0803 -24.8848 -24.8848 -24.676 -24.676 -24.4674 -24.4674
-24.2692 -24.2692 -24.0888 -24.0888 -23.9317 -23.9317 -23.8011 -23.8011 -23.6983 -23.6983
-23.6249 -23.6249 -23.5812 -23.5812 -23.5663 -23.5663 -23.5793 -23.5793 -23.6186 -23.6186
-23.6828 -23.6828 -23.77 -23.77 -23.8784 -23.8784 -24.0063 -24.0063 -24.1518 -24.1518
-24.3133 -24.3133 -24.4889 -24.4889 -24.6771 -24.6771 -24.8762 -24.8762 -25.0847 -25.0847
-25.3012 -25.3012 -25.5241 -25.5241 -25.7523 -25.7523 -25.9841 -25.9841 -26.2179 -26.2179
-26.452 -26.452 -26.684 -26.684 -26.912 -26.912 -27.133 -27.133 -27.3448 -27.3448
-27.5441 -27.5441 -27.7289 -27.7289 -27.896 -27.896 -28.0444 -28.0444 -28.1706 -28.1706
-28.276 -28.276 -28.3549 -28.3549 -28.4128 -28.4128 -28.4376 -28.4376 -28.4434 -28.4434
-28.4048 -28.4048 -28.3555 -28.3555 -28.2403 -28.2403 -28.1422 -28.1422 -27.9355 -27.9355
-27.831 -27.831 -27.5211 -27.5211 -27.5835 -27.5835 -27.1041 -27.1041 -27.5909 -27.5909
-25.5573 -25.5573 -25.5877 -25.5877 -25.6398 -25.6398 -25.6592 -25.6592 -25.6144 -25.6144
-25.5066 -25.5066 -25.3516 -25.3516 -25.1674 -25.1674 -24.9703 -24.9703 -24.7731 -24.7731
-24.5857 -24.5857 -24.4152 -24.4152 -24.2669 -24.2669 -24.1437 -24.1437 -24.0471 -24.0471
-23.9786 -23.9786 -23.9382 -23.9382 -23.9253 -23.9253 -23.9388 -23.9388 -23.9774 -23.9774
-24.0395 -24.0395 -24.1234 -24.1234 -24.2275 -24.2275 -24.3499 -24.3499 -24.4891 -24.4891
-24.6433 -24.6433 -24.8108 -24.8108 -24.9902 -24.9902 -25.1798 -25.1798 -25.3781 -25.3781
-25.5838 -25.5838 -25.7955 -25.7955 -26.012 -26.012 -26.2317 -26.2317 -26.4531 -26.4531
-26.6743 -26.6743 -26.8934 -26.8934 -27.1081 -27.1081 -27.3159 -27.3159 -27.5143 -27.5143
-27.7003 -27.7003 -27.8719 -27.8719 -28.0259 -28.0259 -28.1616 -28.1616 -28.2753 -28.2753
-28.3688 -28.3688 -28.4363 -28.4363 -28.4834 -28.4834 -28.4983 -28.4983 -28.4952 -28.4952
-28.4489 -28.4489 -28.3938 -28.3938 -28.2744 -28.2744 -28.1751 -28.1751 -27.9691 -27.9691
-27.87 -27.87 -27.5657 -27.5657 -27.6407 -27.6407 -27.1684 -27.1684 -27.6847 -27.6847
-25.8039 -25.8039 -25.8322 -25.8322 -25.8833 -25.8833 -25.9051 -25.9051 -25.8647 -25.8647
-25.7643 -25.7643 -25.6185 -25.6185 -25.4449 -25.4449 -25.2587 -25.2587 -25.0725 -25.0725
-24.8956 -24.8956 -24.7349 -24.7349 -24.5953 -24.5953 -24.4795 -24.4795 -24.389 -24.389
-24.3251 -24.3251 -24.2878 -24.2878 -24.2766 -24.2766 -24.2905 -24.2905 -24.328 -24.328
-24.3877 -24.3877 -24.4682 -24.4682 -24.5676 -24.5676 -24.6844 -24.6844 -24.8169 -24.8169
-24.9635 -24.9635 -25.1227 -25.1227 -25.293 -25.293 -25.4728 -25.4728 -25.6608 -25.6608
-25.8555 -25.8555 -26.0558 -26.0558 -26.2604 -26.2604 -26.4678 -26.4678 -26.6766 -26.6766
-26.8851 -26.8851 -27.0911 -27.0911 -27.2927 -27.2927 -27.4873 -27.4873 -27.6726 -27.6726
-27.8456 -27.8456 -28.0044 -28.0044 -28.146 -28.146 -28.2697 -28.2697 -28.3719 -28.3719
-28.4545 -28.4545 -28.5116 -28.5116 -28.5493 -28.5493 -28.5554 -28.5554 -28.5448 -28.5448
-28.492 -28.492 -28.4324 -28.4324 -28.3099 -28.3099 -28.2106 -28.2106 -28.0062 -28.0062
-27.9135 -27.9135 -27.6149 -27.6149 -27.7035 -27.7035 -27.2369 -27.2369 -27.7827 -27.7827
-26.0585 -26.0585 -26.0848 -26.0848 -26.1325 -26.1325 -26.1541 -26.1541 -26.1194 -26.1194
-26.0278 -26.0278 -25.8929 -25.8929 -25.731 -25.731 -25.5569 -25.5569 -25.3823 -25.3823
-25.2163 -25.2163 -25.0655 -25.0655 -24.9344 -24.9344 -24.8259 -24.8259 -24.7413 -24.7413
-24.6818 -24.6818 -24.6474 -24.6474 -24.6375 -24.6375 -24.6511 -24.6511 -24.687 -24.687
-24.7438 -24.7438 -24.8199 -24.8199 -24.9138 -24.9138 -25.024 -25.024 -25.1489 -25.1489
-25.2869 -25.2869 -25.4366 -25.4366 -25.5965 -25.5965 -25.7653 -25.7653 -25.9416 -25.9416
-26.1241 -26.1241 -26.3116 -26.3116 -26.5029 -26.5029 -26.6968 -26.6968 -26.8917 -26.8917
-27.086 -27.086 -27.2779 -27.2779 -27.4652 -27.4652 -27.6456 -27.6456 -27.817 -27.817
-27.9763 -27.9763 -28.122 -28.122 -28.2509 -28.2509 -28.3625 -28.3625 -28.4534 -28.4534
-28.5255 -28.5255 -28.5729 -28.5729 -28.6017 -28.6017 -28.6 -28.6 -28.5826 -28.5826
-28.5241 -28.5241 -28.4604 -28.4604 -28.3355 -28.3355 -28.2364 -28.2364 -28.0343 -28.0343
-27.9476 -27.9476 -27.6562 -27.6562 -27.7568 -27.7568 -27.2998 -27.2998 -27.8723 -27.8723
-26.3023 -26.3023 -26.3258 -26.3258 -26.371 -26.371 -26.3946 -26.3946 -26.3627 -26.3627
-26.277 -26.277 -26.1493 -26.1493 -25.9963 -25.9963 -25.8316 -25.8316 -25.6667 -25.6667
-25.5101 -25.5101 -25.368 -25.368 -25.2447 -25.2447 -25.1427 -25.1427 -25.0631 -25.0631
-25.0073 -25.0073 -24.9752 -24.9752 -24.966 -24.966 -24.979 -24.979 -25.0129 -25.0129
-25.0664 -25.0664 -25.138 -25.138 -25.2263 -25.2263 -25.3298 -25.3298 -25.4471 -25.4471
-25.5766 -25.5766 -25.717 -25.717 -25.8669 -25.8669 -26.0249 -26.0249 -26.1899 -26.1899
-26.3605 -26.3605 -26.5358 -26.5358 -26.7144 -26.7144 -26.8953 -26.8953 -27.0771 -27.0771
-27.2581 -27.2581 -27.4366 -27.4366 -27.6108 -27.6108 -27.7782 -27.7782 -27.9369 -27.9369
-28.0841 -28.0841 -28.2183 -28.2183 -28.3365 -28.3365 -28.4384 -28.4384 -28.5204 -28.5204
-28.5848 -28.5848 -28.6255 -28.6255 -28.6487 -28.6487 -28.6422 -28.6422 -28.6212 -28.6212
-28.56 -28.56 -28.4951 -28.4951 -28.3699 -28.3699 -28.2736 -28.2736 -28.0747 -28.0747
-27.9967 -27.9967 -27.7111 -27.7111 -27.827 -27.827 -27.3735 -27.3735 -27.9759 -27.9759
-26.5531 -26.5531 -26.5756 -26.5756 -26.6188 -26.6188 -26.6401 -26.6401 -26.6132 -26.6132
-26.5352 -26.5352 -26.4184 -26.4184 -26.2769 -26.2769 -26.124 -26.124 -25.9702 -25.9702
-25.8238 -25.8238 -25.6907 -25.6907 -25.5749 -25.5749 -25.4789 -25.4789 -25.4042 -25.4042
-25.3516 -25.3516 -25.3209 -25.3209 -25.3117 -25.3117 -25.3231 -25.3231 -25.3538 -25.3538
-25.4027 -25.4027 -25.4683 -25.4683 -25.5494 -25.5494 -25.6445 -25.6445 -25.7521 -25.7521
-25.8711 -25.8711 -25.9999 -25.9999 -26.1375 -26.1375 -26.2824 -26.2824 -26.4336 -26.4336
-26.5898 -26.5898 -26.7502 -26.7502 -26.9136 -26.9136 -27.079 -27.079 -27.245 -27.245
-27.4103 -27.4103 -27.5731 -27.5731 -27.7319 -27.7319 -27.8844 -27.8844 -28.0289 -28.0289
-28.1626 -28.1626 -28.2844 -28.2844 -28.3913 -28.3913 -28.4833 -28.4833 -28.5569 -28.5569
-28.6141 -28.6141 -28.6491 -28.6491 -28.6677 -28.6677 -28.6577 -28.6577 -28.634 -28.634
-28.5709 -28.5709 -28.5048 -28.5048 -28.3798 -28.3798 -28.2849 -28.2849 -28.0903 -28.0903
-28.0183 -28.0183 -27.7424 -27.7424 -27.8683 -27.8683 -27.4304 -27.4304 -28.0521 -28.0521
-26.7937 -26.7937 -26.8116 -26.8116 -26.8472 -26.8472 -26.8691 -26.8691 -26.8415 -26.8415
-26.7657 -26.7657 -26.6515 -26.6515 -26.5143 -26.5143 -26.3663 -26.3663 -26.2182 -26.2182
-26.0776 -26.0776 -25.95 -25.95 -25.8392 -25.8392 -25.7471 -25.7471 -25.6749 -25.6749
-25.6237 -25.6237 -25.5932 -25.5932 -25.5828 -25.5828 -25.5917 -25.5917 -25.6188 -25.6188
-25.6629 -25.6629 -25.7227 -25.7227 -25.7968 -25.7968 -25.884 -25.884 -25.983 -25.983
-26.0923 -26.0923 -26.211 -26.211 -26.3376 -26.3376 -26.471 -26.471 -26.6102 -26.6102
-26.7541 -26.7541 -26.9018 -26.9018 -27.0522 -27.0522 -27.2045 -27.2045 -27.3575 -27.3575
-27.5098 -27.5098 -27.66 -27.66 -27.8066 -27.8066 -27.9477 -27.9477 -28.0815 -28.0815