# vtk DataFile Version 2.0
sampleSurface
ASCII
DATASET POLYDATA
POINTS 37056 float
-1 0.2 0
-0.953611 0.2 0
-0.909332 0.2 0
-0.867068 0.2 0
-0.826728 0.2 0
-0.788223 0.2 0
-0.75147 0.2 0
-0.71639 0.2 0
-0.682906 0.2 0
-0.650945 0.2 0
-0.620439 0.2 0
-0.591321 0.2 0
-0.563528 0.2 0
-0.537 0.2 0
-0.511679 0.2 0
-0.48751 0.2 0
-0.464441 0.2 0
-0.442421 0.2 0
-0.421404 0.2 0
-0.401343 0.2 0
-0.382194 0.2 0
-0.363918 0.2 0
-0.346472 0.2 0
-0.329821 0.2 0
-0.313927 0.2 0
-0.298757 0.2 0
-0.284277 0.2 0
-0.270455 0.2 0
-0.257263 0.2 0
-0.244671 0.2 0
-0.232652 0.2 0
-0.22118 0.2 0
-0.21023 0.2 0
-0.199778 0.2 0
-0.189802 0.2 0
-0.180279 0.2 0
-0.17119 0.2 0
-0.162515 0.2 0
-0.154234 0.2 0
-0.14633 0.2 0
-0.138786 0.2 0
-0.131585 0.2 0
-0.124712 0.2 0
-0.118152 0.2 0
-0.11189 0.2 0
-0.105913 0.2 0
-0.100208 0.2 0
-0.0947624 0.2 0
-0.0895647 0.2 0
-0.0846036 0.2 0
-0.0798683 0.2 0
-0.0753484 0.2 0
-0.0710342 0.2 0
-0.0669163 0.2 0
-0.0629857 0.2 0
-0.0592341 0.2 0
-0.0556531 0.2 0
-0.0522351 0.2 0
-0.0489726 0.2 0
-0.0458586 0.2 0
-0.0428863 0.2 0
-0.0400492 0.2 0
-0.0373413 0.2 0
-0.0347565 0.2 0
-0.0322894 0.2 0
-0.0299345 0.2 0
-0.0276868 0.2 0
-0.0255414 0.2 0
-0.0234936 0.2 0
-0.021539 0.2 0
-0.0196733 0.2 0
-0.0178925 0.2 0
-0.0161928 0.2 0
-0.0145704 0.2 0
-0.0130218 0.2 0
-0.0115437 0.2 0
-0.0101328 0.2 0
-0.00878617 0.2 0
-0.00750079 0.2 0
-0.0062739 0.2 0
-0.00510285 0.2 0
-0.00398508 0.2 0
-0.00291817 0.2 0
-0.00189981 0.2 0
-0.000927789 0.2 0
0 0.2 0
-1 0.2 0.004
-0.953611 0.2 0.004
-0.909332 0.2 0.004
-0.867068 0.2 0.004
-0.826728 0.2 0.004
-0.788223 0.2 0.004
-0.75147 0.2 0.004
-0.71639 0.2 0.004
-0.682906 0.2 0.004
-0.650945 0.2 0.004
-0.620439 0.2 0.004
-0.591321 0.2 0.004
-0.563528 0.2 0.004
-0.537 0.2 0.004
-0.511679 0.2 0.004
-0.48751 0.2 0.004
-0.464441 0.2 0.004
-0.442421 0.2 0.004
-0.421404 0.2 0.004
-0.401343 0.2 0.004
-0.382194 0.2 0.004
-0.363918 0.2 0.004
-0.346472 0.2 0.004
-0.329821 0.2 0.004
-0.313927 0.2 0.004
-0.298757 0.2 0.004
-0.284277 0.2 0.004
-0.270455 0.2 0.004
-0.257263 0.2 0.004
-0.244671 0.2 0.004
-0.232652 0.2 0.004
-0.22118 0.2 0.004
-0.21023 0.2 0.004
-0.199778 0.2 0.004
-0.189802 0.2 0.004
-0.180279 0.2 0.004
-0.17119 0.2 0.004
-0.162515 0.2 0.004
-0.154234 0.2 0.004
-0.14633 0.2 0.004
-0.138786 0.2 0.004
-0.131585 0.2 0.004
-0.124712 0.2 0.004
-0.118152 0.2 0.004
-0.11189 0.2 0.004
-0.105913 0.2 0.004
-0.100208 0.2 0.004
-0.0947624 0.2 0.004
-0.0895647 0.2 0.004
-0.0846036 0.2 0.004
-0.0798683 0.2 0.004
-0.0753484 0.2 0.004
-0.0710342 0.2 0.004
-0.0669163 0.2 0.004
-0.0629857 0.2 0.004
-0.0592341 0.2 0.004
-0.0556531 0.2 0.004
-0.0522351 0.2 0.004
-0.0489726 0.2 0.004
-0.0458586 0.2 0.004
-0.0428863 0.2 0.004
-0.0400492 0.2 0.004
-0.0373413 0.2 0.004
-0.0347565 0.2 0.004
-0.0322894 0.2 0.004
-0.0299345 0.2 0.004
-0.0276868 0.2 0.004
-0.0255414 0.2 0.004
-0.0234936 0.2 0.004
-0.021539 0.2 0.004
-0.0196733 0.2 0.004
-0.0178925 0.2 0.004
-0.0161928 0.2 0.004
-0.0145704 0.2 0.004
-0.0130218 0.2 0.004
-0.0115437 0.2 0.004
-0.0101328 0.2 0.004
-0.00878617 0.2 0.004
-0.00750079 0.2 0.004
-0.0062739 0.2 0.004
-0.00510285 0.2 0.004
-0.00398508 0.2 0.004
-0.00291817 0.2 0.004
-0.00189981 0.2 0.004
-0.000927789 0.2 0.004
0 0.2 0.004
-1 0.2 0.008
-0.953611 0.2 0.008
-0.909332 0.2 0.008
-0.867068 0.2 0.008
-0.826728 0.2 0.008
-0.788223 0.2 0.008
-0.75147 0.2 0.008
-0.71639 0.2 0.008
-0.682906 0.2 0.008
-0.650945 0.2 0.008
-0.620439 0.2 0.008
-0.591321 0.2 0.008
-0.563528 0.2 0.008
-0.537 0.2 0.008
-0.511679 0.2 0.008
-0.48751 0.2 0.008
-0.464441 0.2 0.008
-0.442421 0.2 0.008
-0.421404 0.2 0.008
-0.401343 0.2 0.008
-0.382194 0.2 0.008
-0.363918 0.2 0.008
-0.346472 0.2 0.008
-0.329821 0.2 0.008
-0.313927 0.2 0.008
-0.298757 0.2 0.008
-0.284277 0.2 0.008
-0.270455 0.2 0.008
-0.257263 0.2 0.008
-0.244671 0.2 0.008
-0.232652 0.2 0.008
-0.22118 0.2 0.008
-0.21023 0.2 0.008
-0.199778 0.2 0.008
-0.189802 0.2 0.008
-0.180279 0.2 0.008
-0.17119 0.2 0.008
-0.162515 0.2 0.008
-0.154234 0.2 0.008
-0.14633 0.2 0.008
-0.138786 0.2 0.008
-0.131585 0.2 0.008
-0.124712 0.2 0.008
-0.118152 0.2 0.008
-0.11189 0.2 0.008
-0.105913 0.2 0.008
-0.100208 0.2 0.008
-0.0947624 0.2 0.008
-0.0895647 0.2 0.008
-0.0846036 0.2 0.008
-0.0798683 0.2 0.008
-0.0753484 0.2 0.008
-0.0710342 0.2 0.008
-0.0669163 0.2 0.008
-0.0629857 0.2 0.008
-0.0592341 0.2 0.008
-0.0556531 0.2 0.008
-0.0522351 0.2 0.008
-0.0489726 0.2 0.008
-0.0458586 0.2 0.008
-0.0428863 0.2 0.008
-0.0400492 0.2 0.008
-0.0373413 0.2 0.008
-0.0347565 0.2 0.008
-0.0322894 0.2 0.008
-0.0299345 0.2 0.008
-0.0276868 0.2 0.008
-0.0255414 0.2 0.008
-0.0234936 0.2 0.008
-0.021539 0.2 0.008
-0.0196733 0.2 0.008
-0.0178925 0.2 0.008
-0.0161928 0.2 0.008
-0.0145704 0.2 0.008
-0.0130218 0.2 0.008
-0.0115437 0.2 0.008
-0.0101328 0.2 0.008
-0.00878617 0.2 0.008
-0.00750079 0.2 0.008
-0.0062739 0.2 0.008
-0.00510285 0.2 0.008
-0.00398508 0.2 0.008
-0.00291817 0.2 0.008
-0.00189981 0.2 0.008
-0.000927789 0.2 0.008
0 0.2 0.008
-1 0.2 0.012
-0.953611 0.2 0.012
-0.909332 0.2 0.012
-0.867068 0.2 0.012
-0.826728 0.2 0.012
-0.788223 0.2 0.012
-0.75147 0.2 0.012
-0.71639 0.2 0.012
-0.682906 0.2 0.012
-0.650945 0.2 0.012
-0.620439 0.2 0.012
-0.591321 0.2 0.012
-0.563528 0.2 0.012
-0.537 0.2 0.012
-0.511679 0.2 0.012
-0.48751 0.2 0.012
-0.464441 0.2 0.012
-0.442421 0.2 0.012
-0.421404 0.2 0.012
-0.401343 0.2 0.012
-0.382194 0.2 0.012
-0.363918 0.2 0.012
-0.346472 0.2 0.012
-0.329821 0.2 0.012
-0.313927 0.2 0.012
-0.298757 0.2 0.012
-0.284277 0.2 0.012
-0.270455 0.2 0.012
-0.257263 0.2 0.012
-0.244671 0.2 0.012
-0.232652 0.2 0.012
-0.22118 0.2 0.012
-0.21023 0.2 0.012
-0.199778 0.2 0.012
-0.189802 0.2 0.012
-0.180279 0.2 0.012
-0.17119 0.2 0.012
-0.162515 0.2 0.012
-0.154234 0.2 0.012
-0.14633 0.2 0.012
-0.138786 0.2 0.012
-0.131585 0.2 0.012
-0.124712 0.2 0.012
-0.118152 0.2 0.012
-0.11189 0.2 0.012
-0.105913 0.2 0.012
-0.100208 0.2 0.012
-0.0947624 0.2 0.012
-0.0895647 0.2 0.012
-0.0846036 0.2 0.012
-0.0798683 0.2 0.012
-0.0753484 0.2 0.012
-0.0710342 0.2 0.012
-0.0669163 0.2 0.012
-0.0629857 0.2 0.012
-0.0592341 0.2 0.012
-0.0556531 0.2 0.012
-0.0522351 0.2 0.012
-0.0489726 0.2 0.012
-0.0458586 0.2 0.012
-0.0428863 0.2 0.012
-0.0400492 0.2 0.012
-0.0373413 0.2 0.012
-0.0347565 0.2 0.012
-0.0322894 0.2 0.012
-0.0299345 0.2 0.012
-0.0276868 0.2 0.012
-0.0255414 0.2 0.012
-0.0234936 0.2 0.012
-0.021539 0.2 0.012
-0.0196733 0.2 0.012
-0.0178925 0.2 0.012
-0.0161928 0.2 0.012
-0.0145704 0.2 0.012
-0.0130218 0.2 0.012
-0.0115437 0.2 0.012
-0.0101328 0.2 0.012
-0.00878617 0.2 0.012
-0.00750079 0.2 0.012
-0.0062739 0.2 0.012
-0.00510285 0.2 0.012
-0.00398508 0.2 0.012
-0.00291817 0.2 0.012
-0.00189981 0.2 0.012
-0.000927789 0.2 0.012
0 0.2 0.012
-1 0.2 0.016
-0.953611 0.2 0.016
-0.909332 0.2 0.016
-0.867068 0.2 0.016
-0.826728 0.2 0.016
-0.788223 0.2 0.016
-0.75147 0.2 0.016
-0.71639 0.2 0.016
-0.682906 0.2 0.016
-0.650945 0.2 0.016
-0.620439 0.2 0.016
-0.591321 0.2 0.016
-0.563528 0.2 0.016
-0.537 0.2 0.016
-0.511679 0.2 0.016
-0.48751 0.2 0.016
-0.464441 0.2 0.016
-0.442421 0.2 0.016
-0.421404 0.2 0.016
-0.401343 0.2 0.016
-0.382194 0.2 0.016
-0.363918 0.2 0.016
-0.346472 0.2 0.016
-0.329821 0.2 0.016
-0.313927 0.2 0.016
-0.298757 0.2 0.016
-0.284277 0.2 0.016
-0.270455 0.2 0.016
-0.257263 0.2 0.016
-0.244671 0.2 0.016
-0.232652 0.2 0.016
-0.22118 0.2 0.016
-0.21023 0.2 0.016
-0.199778 0.2 0.016
-0.189802 0.2 0.016
-0.180279 0.2 0.016
-0.17119 0.2 0.016
-0.162515 0.2 0.016
-0.154234 0.2 0.016
-0.14633 0.2 0.016
-0.138786 0.2 0.016
-0.131585 0.2 0.016
-0.124712 0.2 0.016
-0.118152 0.2 0.016
-0.11189 0.2 0.016
-0.105913 0.2 0.016
-0.100208 0.2 0.016
-0.0947624 0.2 0.016
-0.0895647 0.2 0.016
-0.0846036 0.2 0.016
-0.0798683 0.2 0.016
-0.0753484 0.2 0.016
-0.0710342 0.2 0.016
-0.0669163 0.2 0.016
-0.0629857 0.2 0.016
-0.0592341 0.2 0.016
-0.0556531 0.2 0.016
-0.0522351 0.2 0.016
-0.0489726 0.2 0.016
-0.0458586 0.2 0.016
-0.0428863 0.2 0.016
-0.0400492 0.2 0.016
-0.0373413 0.2 0.016
-0.0347565 0.2 0.016
-0.0322894 0.2 0.016
-0.0299345 0.2 0.016
-0.0276868 0.2 0.016
-0.0255414 0.2 0.016
-0.0234936 0.2 0.016
-0.021539 0.2 0.016
-0.0196733 0.2 0.016
-0.0178925 0.2 0.016
-0.0161928 0.2 0.016
-0.0145704 0.2 0.016
-0.0130218 0.2 0.016
-0.0115437 0.2 0.016
-0.0101328 0.2 0.016
-0.00878617 0.2 0.016
-0.00750079 0.2 0.016
-0.0062739 0.2 0.016
-0.00510285 0.2 0.016
-0.00398508 0.2 0.016
-0.00291817 0.2 0.016
-0.00189981 0.2 0.016
-0.000927789 0.2 0.016
0 0.2 0.016
-1 0.2 0.02
-0.953611 0.2 0.02
-0.909332 0.2 0.02
-0.867068 0.2 0.02
-0.826728 0.2 0.02
-0.788223 0.2 0.02
-0.75147 0.2 0.02
-0.71639 0.2 0.02
-0.682906 0.2 0.02
-0.650945 0.2 0.02
-0.620439 0.2 0.02
-0.591321 0.2 0.02
-0.563528 0.2 0.02
-0.537 0.2 0.02
-0.511679 0.2 0.02
-0.48751 0.2 0.02
-0.464441 0.2 0.02
-0.442421 0.2 0.02
-0.421404 0.2 0.02
-0.401343 0.2 0.02
-0.382194 0.2 0.02
-0.363918 0.2 0.02
-0.346472 0.2 0.02
-0.329821 0.2 0.02
-0.313927 0.2 0.02
-0.298757 0.2 0.02
-0.284277 0.2 0.02
-0.270455 0.2 0.02
-0.257263 0.2 0.02
-0.244671 0.2 0.02
-0.232652 0.2 0.02
-0.22118 0.2 0.02
-0.21023 0.2 0.02
-0.199778 0.2 0.02
-0.189802 0.2 0.02
-0.180279 0.2 0.02
-0.17119 0.2 0.02
-0.162515 0.2 0.02
-0.154234 0.2 0.02
-0.14633 0.2 0.02
-0.138786 0.2 0.02
-0.131585 0.2 0.02
-0.124712 0.2 0.02
-0.118152 0.2 0.02
-0.11189 0.2 0.02
-0.105913 0.2 0.02
-0.100208 0.2 0.02
-0.0947624 0.2 0.02
-0.0895647 0.2 0.02
-0.0846036 0.2 0.02
-0.0798683 0.2 0.02
-0.0753484 0.2 0.02
-0.0710342 0.2 0.02
-0.0669163 0.2 0.02
-0.0629857 0.2 0.02
-0.0592341 0.2 0.02
-0.0556531 0.2 0.02
-0.0522351 0.2 0.02
-0.0489726 0.2 0.02
-0.0458586 0.2 0.02
-0.0428863 0.2 0.02
-0.0400492 0.2 0.02
-0.0373413 0.2 0.02
-0.0347565 0.2 0.02
-0.0322894 0.2 0.02
-0.0299345 0.2 0.02
-0.0276868 0.2 0.02
-0.0255414 0.2 0.02
-0.0234936 0.2 0.02
-0.021539 0.2 0.02
-0.0196733 0.2 0.02
-0.0178925 0.2 0.02
-0.0161928 0.2 0.02
-0.0145704 0.2 0.02
-0.0130218 0.2 0.02
-0.0115437 0.2 0.02
-0.0101328 0.2 0.02
-0.00878617 0.2 0.02
-0.00750079 0.2 0.02
-0.0062739 0.2 0.02
-0.00510285 0.2 0.02
[...]
CELL_DATA 73150
FIELD attributes 1
p 1 73150 float
-223.586 -223.586 -180.888 -180.888 -162.683 -162.683 -137.01 -137.01 -127.782 -127.782
-115.664 -115.664 -108.565 -108.565 -101.157 -101.157 -95.3632 -95.3632 -90.0247 -90.0247
-85.3783 -85.3783 -81.1836 -81.1836 -77.4052 -77.4052 -73.9725 -73.9725 -70.8409 -70.8409
-67.9686 -67.9686 -65.3256 -65.3256 -62.8844 -62.8844 -60.6222 -60.6222 -58.5201 -58.5201
-56.5618 -56.5618 -54.7333 -54.7333 -53.0224 -53.0224 -51.4185 -51.4185 -49.9123 -49.9123
-48.4955 -48.4955 -47.1608 -47.1608 -45.9016 -45.9016 -44.7121 -44.7121 -43.5869 -43.5869
-42.5213 -42.5213 -41.5111 -41.5111 -40.5522 -40.5522 -39.6411 -39.6411 -38.7745 -38.7745
-37.9494 -37.9494 -37.1631 -37.1631 -36.4131 -36.4131 -35.697 -35.697 -35.0126 -35.0126
-34.3579 -34.3579 -33.7311 -33.7311 -33.1302 -33.1302 -32.5538 -32.5538 -32.0003 -32.0003
-31.4679 -31.4679 -30.9552 -30.9552 -30.4611 -30.4611 -29.984 -29.984 -29.5224 -29.5224
-29.0748 -29.0748 -28.6398 -28.6398 -28.2159 -28.2159 -27.8014 -27.8014 -27.3944 -27.3944
-26.9936 -26.9936 -26.5959 -26.5959 -26.209 -26.209 -25.8308 -25.8308 -25.5419 -25.5419
-223.681 -223.681 -180.864 -180.864 -162.651 -162.651 -136.951 -136.951 -127.74 -127.74
-115.612 -115.612 -108.518 -108.518 -101.108 -101.108 -95.3151 -95.3151 -89.9774 -89.9774
-85.3322 -85.3322 -81.1389 -81.1389 -77.362 -77.362 -73.9311 -73.9311 -70.8012 -70.8012
-67.9307 -67.9307 -65.2895 -65.2895 -62.85 -62.85 -60.5896 -60.5896 -58.4891 -58.4891
-56.5324 -56.5324 -54.7055 -54.7055 -52.9961 -52.9961 -51.3937 -51.3937 -49.8889 -49.8889
-48.4735 -48.4735 -47.14 -47.14 -45.8821 -45.8821 -44.6937 -44.6937 -43.5696 -43.5696
-42.5051 -42.5051 -41.4958 -41.4958 -40.5378 -40.5378 -39.6276 -39.6276 -38.7618 -38.7618
-37.9376 -37.9376 -37.152 -37.152 -36.4027 -36.4027 -35.6873 -35.6873 -35.0035 -35.0035
-34.3495 -34.3495 -33.7232 -33.7232 -33.1229 -33.1229 -32.5471 -32.5471 -31.9941 -31.9941
-31.4623 -31.4623 -30.9501 -30.9501 -30.4565 -30.4565 -29.9799 -29.9799 -29.5188 -29.5188
-29.0718 -29.0718 -28.6375 -28.6375 -28.2142 -28.2142 -27.8004 -27.8004 -27.3941 -27.3941
-26.9941 -26.9941 -26.5972 -26.5972 -26.2114 -26.2114 -25.8341 -25.8341 -25.5464 -25.5464
-223.682 -223.682 -180.825 -180.825 -162.587 -162.587 -136.868 -136.868 -127.648 -127.648
-115.518 -115.518 -108.419 -108.419 -101.011 -101.011 -95.218 -95.218 -89.883 -89.883
-85.24 -85.24 -81.0494 -81.0494 -77.2757 -77.2757 -73.8482 -73.8482 -70.7217 -70.7217
-67.8548 -67.8548 -65.2172 -65.2172 -62.7812 -62.7812 -60.5242 -60.5242 -58.4272 -58.4272
-56.4738 -56.4738 -54.65 -54.65 -52.9437 -52.9437 -51.3442 -51.3442 -49.8422 -49.8422
-48.4295 -48.4295 -47.0986 -47.0986 -45.843 -45.843 -44.657 -44.657 -43.5351 -43.5351
-42.4727 -42.4727 -41.4653 -41.4653 -40.5092 -40.5092 -39.6007 -39.6007 -38.7366 -38.7366
-37.9139 -37.9139 -37.1299 -37.1299 -36.382 -36.382 -35.6679 -35.6679 -34.9855 -34.9855
-34.3326 -34.3326 -33.7076 -33.7076 -33.1084 -33.1084 -32.5337 -32.5337 -31.9818 -31.9818
-31.451 -31.451 -30.9399 -30.9399 -30.4474 -30.4474 -29.9718 -29.9718 -29.5118 -29.5118
-29.0659 -29.0659 -28.6328 -28.6328 -28.2107 -28.2107 -27.7983 -27.7983 -27.3934 -27.3934
-26.9951 -26.9951 -26.6 -26.6 -26.2165 -26.2165 -25.8415 -25.8415 -25.5581 -25.5581
-223.673 -223.673 -180.76 -180.76 -162.489 -162.489 -136.744 -136.744 -127.508 -127.508
-115.375 -115.375 -108.269 -108.269 -100.865 -100.865 -95.0714 -95.0714 -89.7407 -89.7407
-85.1009 -85.1009 -80.9145 -80.9145 -77.1457 -77.1457 -73.7235 -73.7235 -70.6021 -70.6021
-67.7408 -67.7408 -65.1086 -65.1086 -62.6779 -62.6779 -60.4261 -60.4261 -58.3342 -58.3342
-56.3857 -56.3857 -54.5668 -54.5668 -52.8651 -52.8651 -51.27 -51.27 -49.7723 -49.7723
-48.3636 -48.3636 -47.0365 -47.0365 -45.7846 -45.7846 -44.602 -44.602 -43.4835 -43.4835
-42.4241 -42.4241 -41.4198 -41.4198 -40.4664 -40.4664 -39.5606 -39.5606 -38.699 -38.699
-37.8786 -37.8786 -37.0968 -37.0968 -36.351 -36.351 -35.639 -35.639 -34.9584 -34.9584
-34.3074 -34.3074 -33.6841 -33.6841 -33.0867 -33.0867 -32.5136 -32.5136 -31.9633 -31.9633
-31.4341 -31.4341 -30.9246 -30.9246 -30.4336 -30.4336 -29.9597 -29.9597 -29.5013 -29.5013
-29.0571 -29.0571 -28.6257 -28.6257 -28.2055 -28.2055 -27.7951 -27.7951 -27.3923 -27.3923
-26.9965 -26.9965 -26.6041 -26.6041 -26.2242 -26.2242 -25.853 -25.853 -25.5763 -25.5763
-223.708 -223.708 -180.665 -180.665 -162.35 -162.35 -136.578 -136.578 -127.319 -127.319
-115.183 -115.183 -108.067 -108.067 -100.668 -100.668 -94.8739 -94.8739 -89.5493 -89.5493
-84.9139 -84.9139 -80.7334 -80.7334 -76.9712 -76.9712 -73.5563 -73.5563 -70.4419 -70.4419
-67.588 -67.588 -64.9632 -64.9632 -62.5397 -62.5397 -60.295 -60.295 -58.21 -58.21
-56.2682 -56.2682 -54.4557 -54.4557 -52.7602 -52.7602 -51.1711 -51.1711 -49.6791 -49.6791
-48.2758 -48.2758 -46.9539 -46.9539 -45.7069 -45.7069 -44.5289 -44.5289 -43.4148 -43.4148
-42.3596 -42.3596 -41.3591 -41.3591 -40.4095 -40.4095 -39.5072 -39.5072 -38.6489 -38.6489
-37.8317 -37.8317 -37.0529 -37.0529 -36.3099 -36.3099 -35.6005 -35.6005 -34.9225 -34.9225
-34.274 -34.274 -33.653 -33.653 -33.0578 -33.0578 -32.487 -32.487 -31.9388 -31.9388
-31.4117 -31.4117 -30.9043 -30.9043 -30.4153 -30.4153 -29.9435 -29.9435 -29.4873 -29.4873
-29.0453 -29.0453 -28.6162 -28.6162 -28.1984 -28.1984 -27.7907 -27.7907 -27.3908 -27.3908
-26.9984 -26.9984 -26.6095 -26.6095 -26.2344 -26.2344 -25.8684 -25.8684 -25.601 -25.601
-223.78 -223.78 -180.536 -180.536 -162.17 -162.17 -136.366 -136.366 -127.077 -127.077
-114.94 -114.94 -107.81 -107.81 -100.42 -100.42 -94.6241 -94.6241 -89.3073 -89.3073
-84.6778 -84.6778 -80.505 -80.505 -76.7514 -76.7514 -73.3458 -73.3458 -70.2404 -70.2404
-67.3961 -67.3961 -64.7806 -64.7806 -62.3664 -62.3664 -60.1307 -60.1307 -58.0544 -58.0544
-56.1211 -56.1211 -54.3168 -54.3168 -52.6292 -52.6292 -51.0476 -51.0476 -49.5627 -49.5627
-48.1662 -48.1662 -46.8508 -46.8508 -45.61 -45.61 -44.4378 -44.4378 -43.3292 -43.3292
-42.2792 -42.2792 -41.2837 -41.2837 -40.3387 -40.3387 -39.4407 -39.4407 -38.5866 -38.5866
-37.7733 -37.7733 -36.9982 -36.9982 -36.2587 -36.2587 -35.5526 -35.5526 -34.8778 -34.8778
-34.2323 -34.2323 -33.6143 -33.6143 -33.0219 -33.0219 -32.4538 -32.4538 -31.9082 -31.9082
-31.3839 -31.3839 -30.8791 -30.8791 -30.3925 -30.3925 -29.9232 -29.9232 -29.4698 -29.4698
-29.0305 -29.0305 -28.6044 -28.6044 -28.1896 -28.1896 -27.7852 -27.7852 -27.3887 -27.3887
-27.0005 -27.0005 -26.616 -26.616 -26.2471 -26.2471 -25.8875 -25.8875 -25.6318 -25.6318
-223.844 -223.844 -180.376 -180.376 -161.95 -161.95 -136.105 -136.105 -126.78 -126.78
-114.643 -114.643 -107.496 -107.496 -100.116 -100.116 -94.3196 -94.3196 -89.0128 -89.0128
-84.3907 -84.3907 -80.2277 -80.2277 -76.485 -76.485 -73.091 -73.091 -69.9968 -69.9968
-67.1644 -67.1644 -64.5604 -64.5604 -62.1575 -62.1575 -59.9329 -59.9329 -57.8673 -57.8673
-55.9444 -55.9444 -54.15 -54.15 -52.4719 -52.4719 -50.8994 -50.8994 -49.4232 -49.4232
-48.035 -48.035 -46.7274 -46.7274 -45.494 -45.494 -44.3289 -44.3289 -43.2268 -43.2268
-42.1831 -42.1831 -41.1935 -41.1935 -40.2541 -40.2541 -39.3614 -39.3614 -38.5122 -38.5122
-37.7036 -37.7036 -36.9329 -36.9329 -36.1976 -36.1976 -35.4956 -35.4956 -34.8245 -34.8245
-34.1826 -34.1826 -33.5681 -33.5681 -32.9791 -32.9791 -32.4141 -32.4141 -31.8717 -31.8717
-31.3505 -31.3505 -30.8487 -30.8487 -30.3652 -30.3652 -29.899 -29.899 -29.4488 -29.4488
-29.0127 -29.0127 -28.59 -28.59 -28.1788 -28.1788 -27.7784 -27.7784 -27.3861 -27.3861
-27.0029 -27.0029 -26.6235 -26.6235 -26.2618 -26.2618 -25.91 -25.91 -25.6683 -25.6683
-223.906 -223.906 -180.178 -180.178 -161.685 -161.685 -135.792 -135.792 -126.424 -126.424
-114.287 -114.287 -107.122 -107.122 -99.7542 -99.7542 -93.9578 -93.9578 -88.6637 -88.6637
-84.0502 -84.0502 -79.9002 -79.9002 -76.1707 -76.1707 -72.7905 -72.7905 -69.7103 -69.7103
-66.8921 -66.8921 -64.302 -64.302 -61.9127 -61.9127 -59.7012 -59.7012 -57.6484 -57.6484
-55.7378 -55.7378 -53.9552 -53.9552 -52.2885 -52.2885 -50.7268 -50.7268 -49.2608 -49.2608
-47.8823 -47.8823 -46.584 -46.584 -45.3593 -45.3593 -44.2024 -44.2024 -43.1081 -43.1081
-42.0717 -42.0717 -41.089 -41.089 -40.156 -40.156 -39.2695 -39.2695 -38.426 -38.426
-37.6229 -37.6229 -36.8573 -36.8573 -36.1269 -36.1269 -35.4295 -35.4295 -34.7628 -34.7628
-34.1251 -34.1251 -33.5145 -33.5145 -32.9294 -32.9294 -32.3682 -32.3682 -31.8294 -31.8294
-31.3118 -31.3118 -30.8135 -30.8135 -30.3336 -30.3336 -29.8709 -29.8709 -29.4243 -29.4243
-28.9919 -28.9919 -28.5732 -28.5732 -28.166 -28.166 -27.7702 -27.7702 -27.3826 -27.3826
-27.0052 -27.0052 -26.6319 -26.6319 -26.2784 -26.2784 -25.9357 -25.9357 -25.7098 -25.7098
-223.963 -223.963 -179.938 -179.938 -161.369 -161.369 -135.422 -135.422 -126.005 -126.005
-113.869 -113.869 -106.683 -106.683 -99.3311 -99.3311 -93.5354 -93.5354 -88.2569 -88.2569
-83.6542 -83.6542 -79.5201 -79.5201 -75.8068 -75.8068 -72.4427 -72.4427 -69.3798 -69.3798
-66.5783 -66.5783 -64.0046 -64.0046 -61.6313 -61.6313 -59.4354 -59.4354 -57.3977 -57.3977
-55.5015 -55.5015 -53.7327 -53.7327 -52.079 -52.079 -50.5298 -50.5298 -49.0757 -49.0757
-47.7085 -47.7085 -46.4208 -46.4208 -45.2061 -45.2061 -44.0586 -44.0586 -42.9732 -42.9732
-41.9452 -41.9452 -40.9704 -40.9704 -40.0449 -40.0449 -39.1652 -39.1652 -38.3284 -38.3284
-37.5314 -37.5314 -36.7717 -36.7717 -36.0468 -36.0468 -35.3546 -35.3546 -34.6929 -34.6929
-34.06 -34.06 -33.4539 -33.4539 -32.8731 -32.8731 -32.3161 -32.3161 -31.7814 -31.7814
-31.2678 -31.2678 -30.7736 -30.7736 -30.2975 -30.2975 -29.8388 -29.8388 -29.3963 -29.3963
-28.9681 -28.9681 -28.5538 -28.5538 -28.1512 -28.1512 -27.7606 -27.7606 -27.3783 -27.3783
-27.0073 -27.0073 -26.6407 -26.6407 -26.2966 -26.2966 -25.964 -25.964 -25.7558 -25.7558
-224.004 -224.004 -179.654 -179.654 -160.996 -160.996 -134.989 -134.989 -125.515 -125.515
-113.384 -113.384 -106.174 -106.174 -98.8421 -98.8421 -93.0486 -93.0486 -87.789 -87.789
-83.1998 -83.1998 -79.0851 -79.0851 -75.3914 -75.3914 -72.0466 -72.0466 -69.0038 -69.0038
-66.2221 -66.2221 -63.6677 -63.6677 -61.3131 -61.3131 -59.1353 -59.1353 -57.1149 -57.1149
-55.2353 -55.2353 -53.4823 -53.4823 -51.8438 -51.8438 -50.3089 -50.3089 -48.8683 -48.8683
-47.5138 -47.5138 -46.2381 -46.2381 -45.0348 -45.0348 -43.898 -43.898 -42.8227 -42.8227
-41.8041 -41.8041 -40.8381 -40.8381 -39.9209 -39.9209 -39.0491 -39.0491 -38.2196 -38.2196
-37.4296 -37.4296 -36.6764 -36.6764 -35.9577 -35.9577 -35.2713 -35.2713 -34.6152 -34.6152
-33.9874 -33.9874 -33.3864 -33.3864 -32.8105 -32.8105 -32.2581 -32.2581 -31.7279 -31.7279
-31.2188 -31.2188 -30.7289 -30.7289 -30.2573 -30.2573 -29.8029 -29.8029 -29.3649 -29.3649
-28.9413 -28.9413 -28.532 -28.532 -28.1344 -28.1344 -27.7494 -27.7494 -27.3729 -27.3729
-27.0091 -27.0091 -26.6499 -26.6499 -26.3161 -26.3161 -25.9945 -25.9945 -25.8057 -25.8057
-224.025 -224.025 -179.318 -179.318 -160.555 -160.555 -134.484 -134.484 -124.946 -124.946
-112.823 -112.823 -105.588 -105.588 -98.2819 -98.2819 -92.4925 -92.4925 -87.2559 -87.2559
-82.6839 -82.6839 -78.5927 -78.5927 -74.9218 -74.9218 -71.6002 -71.6002 -68.5812 -68.5812
-65.8225 -65.8225 -63.2905 -63.2905 -60.9575 -60.9575 -58.8005 -58.8005 -56.8 -56.8
-54.9393 -54.9393 -53.2044 -53.2044 -51.5829 -51.5829 -50.0641 -50.0641 -48.6388 -48.6388
-47.2987 -47.2987 -46.0365 -46.0365 -44.8459 -44.8459 -43.721 -43.721 -42.6569 -42.6569
-41.6488 -41.6488 -40.6926 -40.6926 -39.7847 -39.7847 -38.9216 -38.9216 -38.1002 -38.1002
-37.3178 -37.3178 -36.5719 -36.5719 -35.8599 -35.8599 -35.1799 -35.1799 -34.5299 -34.5299
-33.9079 -33.9079 -33.3124 -33.3124 -32.7417 -32.7417 -32.1945 -32.1945 -31.6692 -31.6692
-31.165 -31.165 -30.6798 -30.6798 -30.2129 -30.2129 -29.7633 -29.7633 -29.3302 -29.3302
-28.9115 -28.9115 -28.5075 -28.5075 -28.1153 -28.1153 -27.7365 -27.7365 -27.3664 -27.3664
-27.0102 -27.0102 -26.659 -26.659 -26.3364 -26.3364 -26.0268 -26.0268 -25.8587 -25.8587
-224.025 -224.025 -178.922 -178.922 -160.039 -160.039 -133.899 -133.899 -124.292 -124.292
-112.182 -112.182 -104.919 -104.919 -97.6444 -97.6444 -91.8624 -91.8624 -86.6522 -86.6522
-82.1031 -82.1031 -78.0399 -78.0399 -74.3953 -74.3953 -71.1021 -71.1021 -68.1106 -68.1106
-65.3786 -65.3786 -62.8724 -62.8724 -60.5642 -60.5642 -58.4309 -58.4309 -56.4529 -56.4529
-54.6138 -54.6138 -52.8991 -52.8991 -51.2968 -51.2968 -49.7962 -49.7962 -48.3879 -48.3879
-47.0637 -47.0637 -45.8166 -45.8166 -44.64 -44.64 -43.5283 -43.5283 -42.4765 -42.4765
-41.48 -41.48 -40.5346 -40.5346 -39.6368 -39.6368 -38.7832 -38.7832 -37.9707 -37.9707
-37.1967 -37.1967 -36.4586 -36.4586 -35.754 -35.754 -35.081 -35.081 -34.4375 -34.4375
-33.8218 -33.8218 -33.2323 -33.2323 -32.6673 -32.6673 -32.1255 -32.1255 -31.6056 -31.6056
-31.1065 -31.1065 -30.6264 -30.6264 -30.1647 -30.1647 -29.7201 -29.7201 -29.2923 -29.2923
-28.8789 -28.8789 -28.4806 -28.4806 -28.0942 -28.0942 -27.7219 -27.7219 -27.3585 -27.3585
-27.0106 -27.0106 -26.668 -26.668 -26.3571 -26.3571 -26.0601 -26.0601 -25.9138 -25.9138
-224.005 -224.005 -178.451 -178.451 -159.429 -159.429 -133.22 -133.22 -123.535 -123.535
-111.448 -111.448 -104.157 -104.157 -96.9219 -96.9219 -91.1513 -91.1513 -85.9729 -85.9729
-81.4531 -81.4531 -77.423 -77.423 -73.8101 -73.8101 -70.5502 -70.5502 -67.5906 -67.5906
-64.8894 -64.8894 -62.4128 -62.4128 -60.1329 -60.1329 -58.0265 -58.0265 -56.074 -56.074
-54.2589 -54.2589 -52.567 -52.567 -50.9861 -50.9861 -49.5055 -49.5055 -48.1161 -48.1161
-46.8096 -46.8096 -45.5789 -45.5789 -44.4178 -44.4178 -43.3206 -43.3206 -42.2823 -42.2823
-41.2983 -41.2983 -40.3648 -40.3648 -39.478 -39.478 -38.6347 -38.6347 -37.8318 -37.8318
-37.0668 -37.0668 -36.3371 -36.3371 -35.6406 -35.6406 -34.975 -34.975 -34.3386 -34.3386
-33.7296 -33.7296 -33.1464 -33.1464 -32.5875 -32.5875 -32.0516 -32.0516 -31.5373 -31.5373
-31.0438 -31.0438 -30.5691 -30.5691 -30.1128 -30.1128 -29.6736 -29.6736 -29.2513 -29.2513
-28.8435 -28.8435 -28.4511 -28.4511 -28.0708 -28.0708 -27.7055 -27.7055 -27.3492 -27.3492
-27.01 -27.01 -26.6763 -26.6763 -26.378 -26.378 -26.0943 -26.0943 -25.9706 -25.9706
-223.954 -223.954 -177.893 -177.893 -158.712 -158.712 -132.44 -132.44 -122.666 -122.666
-110.613 -110.613 -103.292 -103.292 -96.1067 -96.1067 -90.3526 -90.3526 -85.2131 -85.2131
-80.7299 -80.7299 -76.7375 -76.7375 -73.1642 -73.1642 -69.9426 -69.9426 -67.0199 -67.0199
-64.3541 -64.3541 -61.9112 -61.9112 -59.6634 -59.6634 -57.5873 -57.5873 -55.6635 -55.6635
-53.8753 -53.8753 -52.2087 -52.2087 -50.6515 -50.6515 -49.1931 -49.1931 -47.8243 -47.8243
-46.5372 -46.5372 -45.3246 -45.3246 -44.1804 -44.1804 -43.0988 -43.0988 -42.0752 -42.0752
-41.1049 -41.1049 -40.1841 -40.1841 -39.3091 -39.3091 -38.4769 -38.4769 -37.6844 -37.6844
-36.9291 -36.9291 -36.2085 -36.2085 -35.5204 -35.5204 -34.8628 -34.8628 -34.2339 -34.2339
-33.632 -33.632 -33.0556 -33.0556 -32.5031 -32.5031 -31.9734 -31.9734 -31.465 -31.465
-30.9773 -30.9773 -30.5083 -30.5083 -30.0576 -30.0576 -29.624 -29.624 -29.2076 -29.2076
-28.8055 -28.8055 -28.4195 -28.4195 -28.0455 -28.0455 -27.6874 -27.6874 -27.3384 -27.3384
-27.0084 -27.0084 -26.6839 -26.6839 -26.3985 -26.3985 -26.1284 -26.1284 -26.0272 -26.0272
-223.857 -223.857 -177.216 -177.216 -157.855 -157.855 -131.53 -131.53 -121.658 -121.658
-109.658 -109.658 -102.309 -102.309 -95.1872 -95.1872 -89.455 -89.455 -84.3659 -84.3659
-79.9268 -79.9268 -75.9807 -75.9807 -72.4541 -72.4541 -69.2772 -69.2772 -66.3971 -66.3971
-63.7719 -63.7719 -61.3675 -61.3675 -59.1559 -59.1559 -57.1139 -57.1139 -55.2221 -55.2221
-53.4638 -53.4638 -51.8252 -51.8252 -50.2941 -50.2941 -48.86 -48.86 -47.5139 -47.5139
-46.2478 -46.2478 -45.0549 -45.0549 -43.9288 -43.9288 -42.8643 -42.8643 -41.8564 -41.8564
-40.9008 -40.9008 -39.9936 -39.9936 -39.1314 -39.1314 -38.311 -38.311 -37.5295 -37.5295
-36.7845 -36.7845 -36.0734 -36.0734 -35.3944 -35.3944 -34.7452 -34.7452 -34.1242 -34.1242
-33.5298 -33.5298 -32.9605 -32.9605 -32.4147 -32.4147 -31.8914 -31.8914 -31.3892 -31.3892
-30.9075 -30.9075 -30.4444 -30.4444 -29.9995 -29.9995 -29.5716 -29.5716 -29.1612 -29.1612
-28.765 -28.765 -28.3854 -28.3854 -28.0179 -28.0179 -27.6673 -27.6673 -27.3258 -27.3258
-27.0052 -27.0052 -26.6903 -26.6903 -26.4183 -26.4183 -26.1623 -26.1623 -26.0849 -26.0849
-223.685 -223.685 -176.41 -176.41 -156.849 -156.849 -130.485 -130.485 -120.504 -120.504
-108.576 -108.576 -101.199 -101.199 -94.1546 -94.1546 -88.4526 -88.4526 -83.426 -83.426
-79.0388 -79.0388 -75.1503 -75.1503 -71.6779 -71.6779 -68.5527 -68.5527 -65.7217 -65.7217
-63.1428 -63.1428 -60.7819 -60.7819 -58.6111 -58.6111 -56.6072 -56.6072 -54.7508 -54.7508
-53.0257 -53.0257 -51.4178 -51.4178 -49.9153 -49.9153 -48.5077 -48.5077 -47.1862 -47.1862
-45.943 -45.943 -44.7713 -44.7713 -43.6649 -43.6649 -42.6186 -42.6186 -41.6276 -41.6276
-40.6877 -40.6877 -39.7951 -39.7951 -38.9464 -38.9464 -38.1385 -38.1385 -37.3688 -37.3688
-36.6346 -36.6346 -35.9337 -35.9337 -35.264 -35.264 -34.6237 -34.6237 -34.011 -34.011
-33.4243 -33.4243 -32.8624 -32.8624 -32.3235 -32.3235 -31.8069 -31.8069 -31.3111 -31.3111
-30.8356 -30.8356 -30.3784 -30.3784 -29.9395 -29.9395 -29.5175 -29.5175 -29.1131 -29.1131
-28.7229 -28.7229 -28.3499 -28.3499 -27.9889 -27.9889 -27.6459 -27.6459 -27.3121 -27.3121
-27.001 -27.001 -26.6958 -26.6958 -26.4374 -26.4374 -26.195 -26.195 -26.1394 -26.1394
-223.393 -223.393 -175.401 -175.401 -155.612 -155.612 -129.247 -129.247 -119.146 -119.146
-107.331 -107.331 -99.9327 -99.9327 -92.9863 -92.9863 -87.3325 -87.3325 -82.3804 -82.3804
-78.061 -78.061 -74.2407 -74.2407 -70.8323 -70.8323 -67.7673 -67.7673 -64.9928 -64.9928
-62.4667 -62.4667 -60.155 -60.155 -58.0299 -58.0299 -56.0685 -56.0685 -54.2515 -54.2515
-52.5628 -52.5628 -50.9886 -50.9886 -49.5172 -49.5172 -48.1384 -48.1384 -46.8436 -46.8436
-45.625 -45.625 -44.476 -44.476 -43.3906 -43.3906 -42.3638 -42.3638 -41.3907 -41.3907
-40.4675 -40.4675 -39.5902 -39.5902 -38.7558 -38.7558 -37.9611 -37.9611 -37.2035 -37.2035
-36.4806 -36.4806 -35.7902 -35.7902 -35.1304 -35.1304 -34.4991 -34.4991 -33.895 -33.895
-33.3162 -33.3162 -32.7618 -32.7618 -32.23 -32.23 -31.7201 -31.7201 -31.2306 -31.2306
-30.7613 -30.7613 -30.31 -30.31 -29.8771 -29.8771 -29.4608 -29.4608 -29.0625 -29.0625
-28.6782 -28.6782 -28.3117 -28.3117 -27.9571 -27.9571 -27.6217 -27.6217 -27.2955 -27.2955
-26.994 -26.994 -26.6987 -26.6987 -26.4541 -26.4541 -26.2264 -26.2264 -26.1964 -26.1964
-222.956 -222.956 -174.202 -174.202 -154.168 -154.168 -127.832 -127.832 -117.597 -117.597
-105.924 -105.924 -98.5098 -98.5098 -91.6774 -91.6774 -86.0917 -86.0917 -81.2271 -81.2271
-76.9917 -76.9917 -73.251 -73.251 -69.9169 -69.9169 -66.9214 -66.9214 -64.2115 -64.2115
-61.7452 -61.7452 -59.4888 -59.4888 -57.4147 -57.4147 -55.5003 -55.5003 -53.7267 -53.7267
-52.0779 -52.0779 -50.5405 -50.5405 -49.1029 -49.1029 -47.7553 -47.7553 -46.4892 -46.4892
-45.2971 -45.2971 -44.1724 -44.1724 -43.1095 -43.1095 -42.1033 -42.1033 -41.1494 -41.1494
-40.2437 -40.2437 -39.3827 -39.3827 -38.5632 -38.5632 -37.7823 -37.7823 -37.0375 -37.0375
-36.3264 -36.3264 -35.6469 -35.6469 -34.9972 -34.9972 -34.3753 -34.3753 -33.7799 -33.7799
-33.2093 -33.2093 -32.6624 -32.6624 -32.1377 -32.1377 -31.6347 -31.6347 -31.1515 -31.1515
-30.6884 -30.6884 -30.243 -30.243 -29.8161 -29.8161 -29.4055 -29.4055 -29.013 -29.013
-28.6346 -28.6346 -28.2744 -28.2744 -27.9262 -27.9262 -27.5982 -27.5982 -27.2794 -27.2794
-26.9876 -26.9876 -26.7018 -26.7018 -26.4708 -26.4708 -26.2558 -26.2558 -26.2435 -26.2435
-222.321 -222.321 -172.628 -172.628 -152.292 -152.292 -126.092 -126.092 -115.722 -115.722
-104.281 -104.281 -96.8692 -96.8692 -90.1941 -90.1941 -84.7008 -84.7008 -79.9533 -79.9533
-75.8205 -75.8205 -72.1754 -72.1754 -68.9294 -68.9294 -66.0148 -66.0148 -63.379 -63.379
-60.9807 -60.9807 -58.7864 -58.7864 -56.7692 -56.7692 -54.9068 -54.9068 -53.1808 -53.1808
-51.5755 -51.5755 -50.0779 -50.0779 -48.6768 -48.6768 -47.3627 -47.3627 -46.1271 -46.1271
-44.963 -44.963 -43.864 -43.864 -42.8247 -42.8247 -41.8401 -41.8401 -40.9059 -40.9059
-40.0183 -40.0183 -39.174 -39.174 -38.3697 -38.3697 -37.6028 -37.6028 -36.8708 -36.8708
-36.1715 -36.1715 -35.5028 -35.5028 -34.863 -34.863 -34.2503 -34.2503 -33.6633 -33.6633