# vtk DataFile Version 2.0
sampleSurface
ASCII
DATASET POLYDATA
POINTS 24791 float
0.1 0 0.1
0.1 0.00261032 0.1
0.1 0.00524152 0.1
0.1 0.00789376 0.1
0.1 0.0105672 0.1
0.1 0.00130516 0.100599
0.1 0.00392592 0.100599
0.1 0.00656764 0.100599
0.1 0.013262 0.1
0.1 0.00923049 0.100599
0.1 0 0.101198
0.1 0.00261032 0.101198
0.1 0.0159784 0.1
0.1 0.0119146 0.100599
0.1 0.00524152 0.101198
0.1 0.00789376 0.101198
0.1 0.0146202 0.100599
0.1 0.0187166 0.1
0.1 0.0105672 0.101198
0.1 0.00130516 0.101831
0.1 0.00392592 0.101831
0.1 0.00656764 0.101831
0.1 0.013262 0.101198
0.1 0.0173475 0.100599
0.1 0.00923049 0.101831
0.1 0.0214766 0.1
0.1 0.0159784 0.101198
0.1 0 0.102464
0.1 0.00261032 0.102464
0.1 0.0119146 0.101831
0.1 0.0200966 0.100599
0.1 0.00524152 0.102464
0.1 0.00789376 0.102464
0.1 0.0146202 0.101831
0.1 0.0242587 0.1
0.1 0.0187166 0.101198
0.1 0.0105672 0.102464
0.1 0.00130516 0.103134
0.1 0.0228676 0.100599
0.1 0.00392592 0.103134
0.1 0.0173475 0.101831
0.1 0.013262 0.102464
0.1 0.00656764 0.103134
0.1 0.0214766 0.101198
0.1 0.00923049 0.103134
0.1 0.027063 0.1
0.1 0.0159784 0.102464
0.1 0.0200966 0.101831
0.1 0 0.103803
0.1 0.0119146 0.103134
0.1 0.0256608 0.100599
0.1 0.00261032 0.103803
0.1 0.00524152 0.103803
0.1 0.0242587 0.101198
0.1 0.00789376 0.103803
0.1 0.0187166 0.102464
0.1 0.0146202 0.103134
0.1 0.0105672 0.103803
0.1 0.0228676 0.101831
0.1 0.0298898 0.1
0.1 0.00130516 0.104511
0.1 0.0284764 0.100599
0.1 0.0173475 0.103134
0.1 0.00392592 0.104511
0.1 0.013262 0.103803
0.1 0.0214766 0.102464
0.1 0.00656764 0.104511
0.1 0.027063 0.101198
0.1 0.00923049 0.104511
0.1 0.0256608 0.101831
0.1 0.0159784 0.103803
0.1 0.0200966 0.103134
0.1 0.0119146 0.104511
0.1 0 0.105218
0.1 0.0327391 0.1
0.1 0.00261032 0.105218
0.1 0.0242587 0.102464
0.1 0.00524152 0.105218
0.1 0.0313145 0.100599
0.1 0.0187166 0.103803
0.1 0.00789376 0.105218
0.1 0.0298898 0.101198
0.1 0.0146202 0.104511
0.1 0.0228676 0.103134
0.1 0.0284764 0.101831
0.1 0.0105672 0.105218
0.1 0.0173475 0.104511
0.1 0.00130516 0.105966
0.1 0.027063 0.102464
0.1 0.0214766 0.103803
0.1 0.00392592 0.105966
0.1 0.013262 0.105218
0.1 0.0356113 0.1
0.1 0.00656764 0.105966
0.1 0.0341752 0.100599
0.1 0.0256608 0.103134
0.1 0.0327391 0.101198
0.1 0.00923049 0.105966
0.1 0.0159784 0.105218
0.1 0.0200966 0.104511
0.1 0.0313145 0.101831
0.1 0.0242587 0.103803
0.1 0.0119146 0.105966
0.1 0 0.106714
0.1 0.0298898 0.102464
0.1 0.00261032 0.106714
0.1 0.00524152 0.106714
0.1 0.0187166 0.105218
0.1 0.0146202 0.105966
0.1 0.0228676 0.104511
0.1 0.0284764 0.103134
0.1 0.00789376 0.106714
0.1 0.0385064 0.1
0.1 0.0370589 0.100599
0.1 0.0105672 0.106714
0.1 0.027063 0.103803
0.1 0.0356113 0.101198
0.1 0.0173475 0.105966
0.1 0.0214766 0.105218
0.1 0.0341752 0.101831
0.1 0.00130516 0.107504
0.1 0.013262 0.106714
0.1 0.0327391 0.102464
0.1 0.00392592 0.107504
0.1 0.0256608 0.104511
0.1 0.00656764 0.107504
0.1 0.0313145 0.103134
0.1 0.0200966 0.105966
0.1 0.00923049 0.107504
0.1 0.0159784 0.106714
0.1 0.0242587 0.105218
0.1 0.0298898 0.103803
0.1 0.0119146 0.107504
0.1 0.0414247 0.1
0.1 0.0399656 0.100599
0.1 0.0385064 0.101198
0.1 0 0.108295
0.1 0.0284764 0.104511
0.1 0.00261032 0.108295
0.1 0.0187166 0.106714
0.1 0.0370589 0.101831
0.1 0.0228676 0.105966
0.1 0.00524152 0.108295
0.1 0.0356113 0.102464
0.1 0.0146202 0.107504
0.1 0.00789376 0.108295
0.1 0.027063 0.105218
0.1 0.0341752 0.103134
0.1 0.0105672 0.108295
0.1 0.0327391 0.103803
0.1 0.0214766 0.106714
0.1 0.0173475 0.107504
0.1 0.0256608 0.105966
0.1 0.0313145 0.104511
0.1 0.013262 0.108295
0.1 0.00130516 0.109131
0.1 0.00392592 0.109131
0.1 0.00656764 0.109131
0.1 0.0414247 0.101198
0.1 0.0428956 0.100599
0.1 0.0200966 0.107504
0.1 0.0298898 0.105218
0.1 0.0399656 0.101831
0.1 0.0443664 0.1
0.1 0.0242587 0.106714
0.1 0.0385064 0.102464
0.1 0.0159784 0.108295
0.1 0.00923049 0.109131
0.1 0.0370589 0.103134
0.1 0.0284764 0.105966
0.1 0.0356113 0.103803
0.1 0.0119146 0.109131
0.1 0.0187166 0.108295
0.1 0.0228676 0.107504
0.1 0.0341752 0.104511
0.1 0 0.109966
0.1 0.00261032 0.109966
0.1 0.00524152 0.109966
0.1 0.027063 0.106714
0.1 0.0146202 0.109131
0.1 0.0327391 0.105218
0.1 0.00789376 0.109966
0.1 0.0214766 0.108295
0.1 0.0105672 0.109966
0.1 0.0313145 0.105966
0.1 0.0443664 0.101198
0.1 0.0428956 0.101831
0.1 0.0173475 0.109131
0.1 0.0414247 0.102464
0.1 0.0256608 0.107504
0.1 0.045849 0.100599
0.1 0.0399656 0.103134
0.1 0.0473315 0.1
0.1 0.0385064 0.103803
0.1 0.013262 0.109966
0.1 0.0298898 0.106714
0.1 0.00130516 0.11085
0.1 0.0370589 0.104511
0.1 0.00392592 0.11085
0.1 0.0200966 0.109131
0.1 0.0242587 0.108295
0.1 0.00656764 0.11085
0.1 0.0356113 0.105218
0.1 0.0159784 0.109966
0.1 0.0284764 0.107504
0.1 0.00923049 0.11085
0.1 0.0341752 0.105966
0.1 0.0119146 0.11085
0.1 0.0228676 0.109131
0.1 0.0187166 0.109966
0.1 0.0327391 0.106714
0.1 0.027063 0.108295
0.1 0.0443664 0.102464
0.1 0.045849 0.101831
0.1 0.0428956 0.103134
0.1 0.0473315 0.101198
0.1 0 0.111733
0.1 0.00261032 0.111733
0.1 0.0414247 0.103803
0.1 0.0146202 0.11085
0.1 0.048826 0.100599
0.1 0.00524152 0.111733
0.1 0.0399656 0.104511
0.1 0.0503204 0.1
0.1 0.0313145 0.107504
0.1 0.00789376 0.111733
0.1 0.0385064 0.105218
0.1 0.0214766 0.109966
0.1 0.0256608 0.109131
0.1 0.0173475 0.11085
0.1 0.0105672 0.111733
0.1 0.0370589 0.105966
0.1 0.0298898 0.108295
0.1 0.0356113 0.106714
0.1 0.013262 0.111733
0.1 0.0242587 0.109966
0.1 0.0200966 0.11085
0.1 0.00130516 0.112667
0.1 0.00392592 0.112667
0.1 0.0284764 0.109131
0.1 0.0341752 0.107504
0.1 0.00656764 0.112667
0.1 0.045849 0.103134
0.1 0.0473315 0.102464
0.1 0.0159784 0.111733
0.1 0.0443664 0.103803
0.1 0.048826 0.101831
0.1 0.0428956 0.104511
0.1 0.0503204 0.101198
0.1 0.00923049 0.112667
0.1 0.0414247 0.105218
0.1 0.0327391 0.108295
0.1 0.0518268 0.100599
0.1 0.0228676 0.11085
0.1 0.027063 0.109966
0.1 0.0399656 0.105966
0.1 0.0187166 0.111733
0.1 0.0119146 0.112667
0.1 0.0533332 0.1
0.1 0.0385064 0.106714
0.1 0.0313145 0.109131
0.1 0 0.1136
0.1 0.0146202 0.112667
0.1 0.00261032 0.1136
0.1 0.0370589 0.107504
0.1 0.00524152 0.1136
0.1 0.0214766 0.111733
0.1 0.0256608 0.11085
0.1 0.00789376 0.1136
0.1 0.0298898 0.109966
0.1 0.0173475 0.112667
0.1 0.0356113 0.108295
0.1 0.0473315 0.103803
0.1 0.0105672 0.1136
0.1 0.048826 0.103134
0.1 0.045849 0.104511
0.1 0.0503204 0.102464
0.1 0.0443664 0.105218
0.1 0.0518268 0.101831
0.1 0.0428956 0.105966
0.1 0.0242587 0.111733
0.1 0.0341752 0.109131
0.1 0.013262 0.1136
0.1 0.0533332 0.101198
0.1 0.0200966 0.112667
0.1 0.0284764 0.11085
0.1 0.0414247 0.106714
0.1 0.0548516 0.100599
0.1 0.00130516 0.114587
0.1 0.00392592 0.114587
0.1 0.0399656 0.107504
0.1 0.0159784 0.1136
0.1 0.0327391 0.109966
0.1 0.00656764 0.114587
0.1 0.0563701 0.1
0.1 0.0385064 0.108295
0.1 0.00923049 0.114587
0.1 0.027063 0.111733
0.1 0.0228676 0.112667
0.1 0.0187166 0.1136
0.1 0.0313145 0.11085
0.1 0.0119146 0.114587
0.1 0.0370589 0.109131
0.1 0.048826 0.104511
0.1 0.0503204 0.103803
0.1 0.0473315 0.105218
0.1 0.0518268 0.103134
0.1 0.045849 0.105966
0.1 0.0533332 0.102464
0.1 0.0146202 0.114587
0.1 0.0256608 0.112667
0.1 0.0443664 0.106714
0.1 0 0.115574
0.1 0.0356113 0.109966
0.1 0.00261032 0.115574
0.1 0.0214766 0.1136
0.1 0.0298898 0.111733
0.1 0.0548516 0.101831
0.1 0.00524152 0.115574
0.1 0.0428956 0.107504
0.1 0.0563701 0.101198
0.1 0.00789376 0.115574
0.1 0.0173475 0.114587
0.1 0.0414247 0.108295
0.1 0.0341752 0.11085
0.1 0.0105672 0.115574
0.1 0.0579007 0.100599
0.1 0.0242587 0.1136
0.1 0.0284764 0.112667
0.1 0.0399656 0.109131
0.1 0.0594312 0.1
0.1 0.013262 0.115574
0.1 0.0200966 0.114587
0.1 0.0327391 0.111733
0.1 0.0385064 0.109966
0.1 0.00130516 0.116618
0.1 0.0503204 0.105218
0.1 0.0518268 0.104511
0.1 0.0159784 0.115574
0.1 0.048826 0.105966
0.1 0.00392592 0.116618
0.1 0.0533332 0.103803
0.1 0.0473315 0.106714
0.1 0.027063 0.1136
0.1 0.00656764 0.116618
0.1 0.0548516 0.103134
0.1 0.0228676 0.114587
0.1 0.045849 0.107504
0.1 0.0370589 0.11085
0.1 0.0313145 0.112667
0.1 0.0563701 0.102464
0.1 0.00923049 0.116618
0.1 0.0443664 0.108295
0.1 0.0187166 0.115574
0.1 0.0579007 0.101831
0.1 0.0119146 0.116618
0.1 0.0428956 0.109131
0.1 0.0356113 0.111733
0.1 0.0594312 0.101198
0.1 0.0256608 0.114587
0.1 0.0298898 0.1136
0.1 0.0414247 0.109966
0.1 0.0146202 0.116618
0.1 0.0214766 0.115574
0.1 0.0609741 0.100599
0.1 0 0.117661
0.1 0.00261032 0.117661
0.1 0.0341752 0.112667
0.1 0.00524152 0.117661
0.1 0.0399656 0.11085
0.1 0.0173475 0.116618
0.1 0.00789376 0.117661
0.1 0.0625169 0.1
0.1 0.0518268 0.105966
0.1 0.0533332 0.105218
0.1 0.0503204 0.106714
0.1 0.0548516 0.104511
0.1 0.048826 0.107504
0.1 0.0284764 0.114587
0.1 0.0242587 0.115574
0.1 0.0563701 0.103803
0.1 0.0105672 0.117661
0.1 0.0385064 0.111733
0.1 0.0473315 0.108295
0.1 0.0327391 0.1136
0.1 0.0579007 0.103134
0.1 0.0200966 0.116618
0.1 0.045849 0.109131
0.1 0.013262 0.117661
0.1 0.0594312 0.102464
0.1 0.0443664 0.109966
0.1 0.0370589 0.112667
0.1 0.0609741 0.101831
0.1 0.027063 0.115574
0.1 0.0159784 0.117661
0.1 0.00130516 0.118764
0.1 0.0313145 0.114587
0.1 0.00392592 0.118764
0.1 0.0228676 0.116618
0.1 0.0428956 0.11085
0.1 0.00656764 0.118764
0.1 0.0625169 0.101198
0.1 0.0356113 0.1136
0.1 0.00923049 0.118764
0.1 0.0187166 0.117661
0.1 0.0414247 0.111733
0.1 0.0640721 0.100599
0.1 0.0533332 0.106714
0.1 0.0548516 0.105966
0.1 0.0518268 0.107504
0.1 0.0119146 0.118764
0.1 0.0563701 0.105218
0.1 0.0298898 0.115574
0.1 0.0256608 0.116618
0.1 0.0503204 0.108295
0.1 0.0579007 0.104511
0.1 0.0399656 0.112667
0.1 0.048826 0.109131
0.1 0.0341752 0.114587
0.1 0.0214766 0.117661
0.1 0.0656272 0.1
0.1 0.0594312 0.103803
0.1 0.0146202 0.118764
0.1 0.0473315 0.109966
0.1 0.0609741 0.103134
0.1 0 0.119867
0.1 0.00261032 0.119867
0.1 0.0385064 0.1136
0.1 0.045849 0.11085
0.1 0.00524152 0.119867
0.1 0.0173475 0.118764
0.1 0.0625169 0.102464
0.1 0.0284764 0.116618
0.1 0.0327391 0.115574
0.1 0.00789376 0.119867
0.1 0.0242587 0.117661
0.1 0.0443664 0.111733
0.1 0.0640721 0.101831
0.1 0.0105672 0.119867
0.1 0.0370589 0.114587
[...]
POINT_DATA 24791
FIELD attributes 1
p 1 24791 float
-43.1998 -43.1809 -43.1367 -43.0711 -42.9971 -43.1998 -43.1618 -43.1114 -42.9467 -43.0307
-43.1978 -43.1819 -42.9372 -42.9633 -43.1485 -43.0987 -42.93 -42.9753 -43.0388 -43.1958
-43.1702 -43.1507 -42.9985 -42.9444 -43.1021 -43.0587 -42.9949 -43.2067 -43.194 -43.0593
-43.0064 -43.1769 -43.1567 -43.0418 -43.1809 -43.0354 -43.1277 -43.2177 -43.1111 -43.1925
-43.064 -43.112 -43.1944 -43.1183 -43.1797 -43.3344 -43.1242 -43.1274 -43.2356 -43.1702
-43.2509 -43.2209 -43.2079 -43.2384 -43.2075 -43.1722 -43.1774 -43.2074 -43.2292 -43.5113
-43.2536 -43.418 -43.2144 -43.22 -43.2191 -43.256 -43.2251 -43.3883 -43.2312 -43.363
-43.2518 -43.2838 -43.2488 -43.2723 -43.7048 -43.2525 -43.3722 -43.2327 -43.6049 -43.3121
-43.2376 -43.5611 -43.2808 -43.3848 -43.5223 -43.2555 -43.3356 -43.2912 -43.5151 -43.4008
-43.2452 -43.2894 -43.9087 -43.2407 -43.805 -43.513 -43.7498 -43.2537 -43.342 -43.4155
-43.7 -43.516 -43.2884 -43.309 -43.6785 -43.2826 -43.2501 -43.4166 -43.3402 -43.5203
-43.6631 -43.2501 -44.1179 -44.0127 -43.2756 -43.6535 -43.9487 -43.4119 -43.5138 -43.8902
-43.327 -43.3244 -43.8565 -43.2672 -43.6471 -43.2476 -43.8297 -43.5041 -43.2587 -43.3931
-43.6321 -43.8085 -43.3018 -44.3283 -44.2234 -44.1529 -43.3429 -43.792 -43.3097 -43.4815
-44.0877 -43.6162 -43.2622 -44.0441 -43.3675 -43.252 -43.7685 -44.0075 -43.2781 -43.9762
-43.5887 -43.4533 -43.7458 -43.9505 -43.3351 -43.359 -43.2854 -43.2487 -44.3584 -44.4337
-43.5572 -43.919 -44.2885 -44.537 -43.713 -44.2367 -43.4154 -43.2532 -44.192 -43.8899
-44.1521 -43.2987 -43.5154 -43.6778 -44.1184 -43.3718 -43.332 -43.2694 -43.8517 -43.3726
-44.0798 -43.2468 -43.6323 -43.2691 -44.0447 -44.5623 -44.489 -43.4688 -44.4308 -43.8128
-44.6408 -44.3795 -44.7416 -44.3325 -43.3293 -44.0016 -43.3848 -44.2918 -43.2986 -43.5828
-43.7638 -43.2449 -44.2473 -43.417 -43.959 -43.2405 -44.2067 -43.2842 -43.7119 -43.5258
-44.1594 -43.907 -44.6235 -44.6867 -44.567 -44.7624 -43.3935 -43.3477 -44.5142 -43.3619
-44.8428 -43.2709 -44.4677 -44.9405 -44.1135 -43.2353 -44.4181 -43.6513 -43.8533 -43.4649
-43.2516 -44.3731 -44.059 -44.322 -43.3115 -43.7902 -43.5869 -43.4023 -43.3049 -44.0037
-44.2733 -43.235 -44.7522 -44.8129 -43.403 -44.6947 -44.88 -44.6435 -44.957 -43.221
-44.5897 -44.2168 -45.0386 -43.7239 -43.9391 -44.5408 -43.518 -43.2607 -45.1327 -44.4868
-44.1605 -43.4058 -43.3391 -43.3547 -44.4358 -43.2647 -43.6507 -43.8721 -43.2166 -44.095
-43.4462 -44.3777 -44.8724 -43.2259 -44.9337 -44.8172 -44.9977 -44.7602 -45.0676 -44.708
-43.7967 -44.3206 -43.2835 -45.1454 -43.5743 -44.0279 -44.6516 -45.2272 -43.4092 -43.3021
-44.5986 -43.3765 -44.255 -43.2168 -45.3177 -44.5395 -43.1936 -43.9519 -43.7182 -43.4958
-44.1884 -43.2284 -44.4819 -44.9876 -45.0462 -44.9279 -45.1102 -44.8729 -45.1769 -43.3056
-43.8731 -44.8148 -43.4061 -44.4166 -43.3505 -43.6346 -44.1128 -45.2489 -43.2487 -44.7601
-45.3269 -43.1887 -43.415 -44.7003 -44.351 -43.1911 -45.4086 -43.7872 -44.035 -44.6425
-45.4954 -43.2454 -43.548 -44.2766 -44.5778 -43.403 -45.0921 -45.1539 -43.3386 -45.0348
-43.2874 -45.2152 -44.9752 -43.9488 -43.188 -45.2816 -43.6981 -44.919 -44.5135 -44.2006
-45.3502 -43.1562 -44.8589 -43.4613 -45.4236 -43.1858 -44.8009 -44.4407 -45.5015 -43.8596
-44.1156 -44.737 -43.2614 -43.6054 -45.5825 -43.3918 -43.3324 -44.367 -43.2199 -44.6739
-43.3725 -43.1491 -45.6657 -45.193 -45.2524 -45.1322 -45.3158 -45.0747 -44.028 -43.7645
-45.3794 -43.145 -44.6033 -45.0143 -44.2844 -45.4475 -43.5098 -44.9562 -43.1961 -45.5176
-44.8931 -44.5321 -45.5919 -43.9328 -43.2896 -43.3805 -44.1995 -43.258 -43.666 -44.8313
-43.1456 -45.6692 -44.4523 -43.1062 -43.4155 -44.7627 -45.7491 -45.2855 -45.3474 -45.2269
-43.1312 -45.4085 -44.1061 -43.8344 -45.1661 -45.4734 -44.6942 -45.1078 -44.3709 -43.565
-45.8288 -45.5388 -43.2056 -45.0455 -45.6081 -43.3595 -43.2971 -44.6176 -44.9848 -43.1756
-43.3186 -45.6792 -44.0097 -44.2805 -43.0951 -43.7306 -44.9182 -45.7538 -43.0854 -44.5399
-43.4608 -44.8521 -43.1342 -45.8302 -45.4353 -45.3755 -45.3144 -43.906 -44.1875 -45.4981
-45.2557 -45.5607 -44.7788 -43.2287 -45.194 -44.4533 -43.6232 -45.9087 -45.6268 -43.3381
-43.2109 -45.134 -45.6936 -43.087 -43.3585 -45.0693 -44.7048 -45.9849 -43.0409 -44.0862
-45.7637 -43.7988 -44.3646 -43.0624 -45.0053 -45.8353 -43.5139 -44.6223 -43.1368 -44.935
-45.9096 -45.4593 -45.5209 -43.9815 -44.2669 -45.4001 -45.5818 -43.3052 -45.3387 -43.2412
-45.6455 -43.2532 -43.6867 -43.1129 -45.9847 -44.8645 -44.5382 -45.2792 -45.7095 -43.0242
-45.2159 -45.7763 -43.0101 -43.4009 -46.0613 -44.7861 -45.1536 -45.8441 -44.1662 -43.8696
-43.0581 -44.445 -45.0859 -45.9146 -43.5705 -46.1339 -43.1551 -44.7067 -45.986 -45.0185
-43.2718 -43.1428 -45.6013 -44.057 -45.5413 -45.48 -44.3493 -45.6635 -43.0095 -43.2901
-45.7255 -45.4206 -43.7539 -46.0596 -42.958 -44.9438 -44.6182 -45.3582 -45.79 -42.978
-45.855 -45.2971 -43.4525 -46.1327 -45.2315 -45.9224 -44.8688 -44.2442 -43.0543 -43.9442
-44.528 -45.9907 -45.1665 -43.633 -46.2068 -43.1755 -43.2242 -43.1603 -44.7851 -43.0284
-46.0609 -45.0952 -42.9338 -45.6184 -45.68 -44.1362 -45.7409 -44.4279 -43.3302 -45.5587
-46.2759 -42.9173 -45.4967 -45.8038 -43.8239 -46.1316 -45.8669 -45.0241 -44.7002 -45.4364
-42.9666 -45.932 -45.3721 -43.5079 -46.2036 -43.068 -45.9978 -44.9447 -45.3091 -44.3254
-44.0187 -44.6055 -43.1758 -46.0653 -46.2741 -43.0491 -45.2404 -43.2096 -43.6995 -42.9103
-44.865 -46.1334 -42.8557 -45.1724 -45.7545 -43.38 -44.2124 -46.3451 -45.6941 -42.8761
-45.8168 -45.6321 -44.509 -45.8786 -46.2028 -43.8978 -45.5718 -45.9423 -42.9567 -45.5085
-44.7754 -45.0968 -46.0063 -43.5689 -46.4103 -45.4465 -46.2718 -43.0845 -46.0718 -43.1093
-44.4013 -45.3797 -43.0477 -45.0215 -44.0966 -42.9169 -46.1378 -44.6848 -46.3414 -42.8205
-43.2474 -43.7678 -45.314 -42.8045 -46.205 -44.9367 -42.8576 -46.4085 -45.2415 -43.4338
-45.7652 -45.8277 -45.889 -44.2915 -45.7044 -44.5828 -46.2721 -45.9521 -43.9698 -45.6412
-42.9655 -46.0149 -45.5797 -45.1698 -44.8517 -46.0793 -46.4757 -46.3398 -43.6339 -45.5139
-43.1151 -43.0413 -46.1438 -42.9221 -42.7839 -45.0891 -45.4497 -44.4795 -44.1694 -46.4062
-46.2095 -42.73 -44.7551 -46.5365 -43.2942 -43.8397 -45.3793 -42.7543 -46.275 -45.0089
-46.4724 -42.8415 -43.4917 -45.3103 -45.8964 -45.8349 -45.9599 -46.3413 -44.3628 -45.7711
-46.0222 -44.6581 -44.0448 -45.7093 -42.9776 -46.0863 -45.6438 -46.5353 -45.2329 -46.1498
-44.9173 -42.9499 -46.4064 -42.8932 -43.6982 -42.77 -45.5802 -43.1497 -46.2149 -42.6778
-42.6667 -45.511 -44.5471 -46.4715 -46.2793 -45.1566 -44.2445 -46.5976 -43.345 -44.826
-42.7266 -43.9065 -45.4437 -46.3447 -46.5341 -42.843 -45.0692 -46.6538 -46.4089 -43.5531
-45.9636 -45.8988 -45.3685 -46.0263 -45.8362 -46.091 -44.4355 -43.0019 -44.7206 -46.1543
-45.7702 -44.1108 -42.8563 -46.596 -42.7499 -46.4734 -46.2193 -45.7064 -42.6208 -45.295
-44.9828 -43.7654 -43.19 -46.2833 -42.5737 -45.6375 -46.5355 -42.606 -46.6536 -46.3485
-45.5709 -44.6153 -45.211 -44.3071 -43.3954 -42.7024 -44.8824 -46.4122 -43.9753 -45.4968
-46.597 -42.8486 -46.7102 -46.4766 -45.1286 -46.0249 -43.6084 -46.0911 -45.961 -46.1551
-45.4251 -45.8938 -42.7319 -42.6829 -44.4926 -43.0301 -46.2211 -46.6546 -42.5744 -45.8292
-44.783 -44.178 -46.5386 -42.4945 -46.2852 -45.7596 -46.761 -45.3432 -45.0323 -42.4939
-46.3509 -43.8214 -43.2337 -45.6927 -46.6004 -46.7108 -42.5645 -46.4147 -45.6188 -44.6656
-45.2637 -44.37 -42.6917 -43.4485 -46.4796 -46.6582 -44.9377 -44.0285 -45.5477 -46.7621
-42.8606 -46.5418 -45.1705 -46.1497 -46.0843 -42.6044 -46.0154 -43.6656 -42.5164 -46.2176
-45.4669 -46.715 -45.9492 -46.2827 -42.4059 -43.0573 -44.5492 -46.6044 -45.8782 -44.8251
-42.3734 -46.3498 -44.2257 -46.812 -45.8102 -42.4188 -46.4143 -45.389 -45.0798 -43.2695
-46.7664 -46.6629 -43.8782 -45.7355 -42.5278 -46.4804 -46.8568 -45.664 -46.5432 -42.6852
-45.2978 -44.4102 -44.7143 -46.721 -43.4871 -46.8158 -44.9711 -44.0815 -45.5831 -46.6071
-42.8761 -42.4376 -42.3991 -42.3126 -46.1351 -46.2061 -46.7733 -46.2731 -46.0671 -45.2096
-42.2535 -43.7025 -45.994 -46.3427 -46.6666 -45.5056 -46.8596 -43.0871 -42.2703 -46.4086
-45.9243 -44.5803 -44.8648 -44.2721 -42.3561 -45.8478 -46.4766 -46.8242 -46.7263 -45.4152
-45.1038 -43.3065 -43.9099 -46.5408 -42.4963 -45.775 -46.9017 -46.6064 -46.7803 -45.6929
-42.6757 -46.8679 -44.7353 -45.3284 -44.4481 -43.5259 -46.6675 -45.0011 -44.1054 -42.2664
-45.6147 -42.2025 -42.8801 -46.8335 -46.9397 -42.1194 -46.253 -46.183 -46.3262 -46.1074
-42.1098 -46.7293 -46.9092 -46.3945 -45.2243 -46.0354 -43.7384 -45.5239 -46.4655 -42.1744
-43.0972 -45.9565 -44.6082 -46.879 -46.5318 -44.8751 -46.7851 -44.2862 -42.2992 -45.8815
-46.6001 -45.4372 -46.9445 -43.3171 -45.1239 -45.7973 -42.4689 -43.9396 -46.841 -46.6632
-46.9226 -45.7174 -42.6687 -45.3335 -46.7276 -44.4509 -44.7523 -43.5322 -42.0469 -42.0215
-41.964 -46.9779 -46.8891 -45.0003 -45.625 -44.1261 -41.934 -42.885 -46.9574 -46.2968
-46.2185 -46.7858 -46.3688 -41.9752 -46.1441 -46.444 -46.0621 -46.5133 -45.2341 -42.0805
-43.7371 -45.5373 -46.9362 -45.9844 -43.1068 -46.5853 -46.8445 -47.0085 -44.599 -42.2356
-45.8972 -44.8806 -46.9896 -46.6511 -44.2962 -45.4327 -42.4254 -46.8955 -45.1118 -45.8148
-43.3257 -46.9736 -46.7189 -43.9281 -45.7197 -42.636 -46.7799 -47.0154 -41.8212 -41.7865
-46.9462 -45.333 -44.7305 -41.7391 -44.4489 -43.5354 -47.0088 -41.7602 -46.8421 -44.9939
-45.6298 -46.3271 -44.1027 -42.8558 -46.4081 -46.2501 -46.4815 -46.1648 -41.8493 -46.5584
-46.9872 -46.084 -45.2108 -46.8962 -47.0392 -41.9927 -46.628 -45.9932 -45.5233 -43.7316
-43.0753 -47.0334 -46.7003 -42.1754 -45.9075 -44.5841 -44.846 -44.2596 -46.9507 -47.027
-46.7648 -45.422 -45.809 -42.3828 -43.2874 -45.0935 -47.0615 -43.9114 -47.0552 -46.8312
-41.5394 -46.9955 -41.5293 -45.716 -41.5069 -42.6023 -47.055 -41.5134 -45.2987 -46.8889
-43.4872 -44.7023 -44.3986 -41.5848 -46.3531 -46.4323 -46.2644 -45.6064 -44.9466 -46.5157
-47.0398 -46.1805 -42.8238 -41.7132 -44.0732 -47.0706 -46.5902 -46.0857 -46.9478 -47.0806
-46.6682 -41.8843 -45.1806 -45.9963 -45.5025 -43.6712 -46.7371 -43.0395 -47.0725 -46.9965
-45.8937 -42.0838 -44.5197 -46.8088 -44.8042 -47.0839 -44.2164 -47.094 -45.3768 -45.7968
-42.2988 -46.8708 -45.0335 -43.2436 -47.0456 -43.8374 -41.2491 -47.1039 -41.2477 -45.6832
-41.2426 -42.5188 -46.9348 -41.3009 -45.2567 -47.0972 -47.0829 -46.3603 -46.4521 -41.4188
-47.1044 -44.6237 -46.5332 -46.2734 -43.4324 -44.3408 -45.5756 -46.1746 -46.988 -46.6184
-47.1213 -44.8914 -42.7352 -41.5827 -43.9847 -46.0812 -46.6931 -45.9741 -41.7777 -46.7713
-47.1198 -45.1082 -47.0424 -45.4464 -43.6035 -47.1086 -42.9418 -46.8387 -45.8728 -41.9909
-47.1362 -44.4472 -44.7117 -47.0845 -46.9087 -44.1128 -45.7545 -47.143 -45.3233 -42.2112
-40.8989 -40.9057 -44.965 -43.1343 -40.9227 -46.9672 -43.7554 -40.9709 -45.6425 -47.1107
-47.1375 -47.1269 -41.0768 -42.4296 -46.4517 -46.3621 -45.1721 -47.1647 -46.5462 -46.2594
-47.0275 -41.2304 -46.6283 -46.1623 -44.5364 -43.3096 -45.5089 -44.2222 -46.7146 -41.4176
-46.0503 -44.7851 -47.1557 -42.6395 -46.7886 -43.8876 -47.075 -47.1357 -47.1146 -45.9445
-41.6252 -47.1706 -46.8661 -45.0266 -45.3816 -45.821 -43.466 -42.8362 -41.8422 -47.1235
-46.9307 -47.1838 -44.3136 -44.6098 -45.7039 -44.0003 -45.2267 -40.5377 -47.1282 -40.5714
-46.998 -42.0597 -47.174 -40.6131 -44.8452 -47.1579 -43.0162 -40.7123 -45.5651 -43.6027
-47.1964 -47.0515 -40.8614 -46.4456 -46.3395 -46.5373 -42.2707 -46.2388 -46.6337 -45.0778
-46.1222 -41.0459 -46.716 -47.1925 -45.4328 -44.3881 -47.1624 -47.1186 -47.1068 -46.0117
-43.1774 -44.0941 -46.8024 -41.2519 -44.6688 -47.2076 -42.4701 -45.8827 -43.7196 -46.8746
-41.4683 -45.2732 -47.1474 -47.2115 -44.8937 -46.9501 -45.7603 -43.3188 -42.654 -47.1477
-41.6866 -47.1125 -47.2012 -47.0109 -45.6157 -40.1188 -40.1427 -44.1699 -47.1889 -44.4472
-40.2004 -45.1199 -43.8169 -47.2299 -40.2926 -41.8996 -47.074 -44.715 -40.4345 -42.82
-45.4779 -46.4136 -46.5227 -46.31 -43.4399 -46.6154 -40.6138 -46.1889 -47.2144 -47.128
-47.1924 -46.7128 -46.0741 -42.1021 -47.1215 -44.9321 -40.816 -47.2311 -46.7943 -45.3127
-45.9396 -44.2293 -43.8957 -42.9666 -46.8797 -41.0296 -44.4923 -47.2399 -45.8118 -47.1707
-42.2901 -46.949 -43.541 -41.2462 -47.1673 -45.154 -47.1063 -45.6612 -44.7498 -47.2309
-47.0213 -47.2031 -43.0931 -47.2483 -41.4591 -42.4609 -39.6861 -45.5174 -39.7541 -43.9569
-39.8427 -47.0768 -44.9616 -44.2734 -39.9832 -43.6227 -47.1393 -41.6631 -47.2364 -46.4803
-47.2116 -46.3745 -44.5249 -46.2497 -40.1633 -45.3461 -47.0898 -46.5914 -46.1309 -46.6843
-47.1346 -42.6128 -47.2561 -40.3672 -43.1993 -45.9912 -46.7817 -41.8542 -44.7748 -40.5822
-45.8582 -46.8612 -47.2519 -45.1815 -47.1749 -44.0021 -47.1899 -47.1071 -45.7015 -46.9445
-40.7996 -43.686 -42.7445 -47.2452 -44.3041 -42.0295 -43.2858 -47.0094 -47.2166 -44.9835
-45.5516 -47.2675 -41.0137 -44.5468 -47.0773 -39.2059 -39.2455 -45.3739 -47.151 -39.3414
-42.8559 -42.1868 -41.2198 -47.2331 -47.2399 -47.0732 -39.4754 -44.7913 -43.7323 -44.0327
-46.3031 -39.6518 -46.431 -47.2645 -46.538 -47.1265 -46.1811 -43.3533 -46.6501 -46.0368
-39.855 -45.2028 -41.4141 -44.3228 -46.7421 -45.8989 -42.3248 -47.2639 -40.0705 -46.8383
-47.1777 -42.9471 -47.2003 -47.1095 -45.7363 -44.5592 -40.2883 -44.9988 -47.2609 -47.0459
-41.5937 -46.9146 -45.5803 -47.2097 -43.763 -47.2687 -40.5028 -46.9943 -43.403 -42.4428
-44.0505 -45.3962 -41.7562 -44.8006 -47.1656 -43.0188 -47.0539 -40.7098 -47.0647 -47.2374
-44.3313 -47.2429 -38.7092 -47.2735 -38.8066 -45.2185 -38.9373 -47.1161 -46.3479 -42.5407
-40.9062 -46.2236 -46.4778 -41.9002 -39.1148 -46.0753 -46.585 -44.5637 -43.4363 -39.3232
-43.7797 -45.9332 -47.2562 -46.6969 -45.0082 -47.1127 -47.2128 -47.1579 -43.0719 -45.7651
-39.5444 -44.057 -46.7868 -41.0894 -47.0186 -47.2585 -39.7665 -45.6035 -46.8806 -42.0246
-42.6189 -47.27 -44.3309 -47.2014 -44.8035 -46.9525 -39.9836 -41.2571 -45.413 -47.1666
-47.0574 -43.4548 -47.243 -40.1926 -47.0275 -43.1078 -43.7842 -46.9803 -47.2241 -45.2287
-42.1289 -44.5612 -47.2634 -41.4074 -42.6781 -44.0538 -47.0805 -40.3913 -38.1827 -38.2348
-45.012 -38.3616 -46.2567 -46.3824 -46.1054 -38.5302 -47.2478 -46.5132 -47.1185 -47.2067
-45.9599 -46.6194 -47.0002 -38.7354 -47.1358 -45.787 -40.5779 -42.2134 -41.5392 -44.3229
-47.2567 -46.73 -38.9591 -43.4601 -43.128 -44.8007 -45.6203 -46.8165 -39.1857 -42.7195
-43.7781 -47.2503 -47.1692 -45.4239 -40.7501 -39.4065 -46.9066 -47.1693 -47.0517 -41.6516
-44.5526 -47.2293 -44.0423 -42.2786 -45.2335 -46.9418 -39.6183 -46.973 -47.2039 -40.9063
-47.2532 -45.0103 -43.1341 -39.8195 -43.4539 -47.042 -42.7444 -41.7443 -44.3084 -47.1095
-47.2015 -47.2166 -46.9827 -46.1257 -41.0449 -46.279 -43.7631 -46.4048 -45.9778 -42.3253
-37.6372 -44.7924 -40.0091 -47.2348 -37.7555 -47.0876 -45.801 -46.8924 -46.5354 -37.9173
-38.1228 -46.6394 -45.63 -38.3533 -44.0237 -47.23 -40.1855 -46.7475 -45.4283 -41.8177
-47.135 -44.5386 -41.1649 -38.5886 -47.1521 -47.0481 -43.1278 -42.7543 -46.8295 -47.2161
-46.9131 -45.2322 -43.438 -38.8165 -42.3549 -40.3473 -47.159 -47.2212 -46.9147 -39.033
-45.0031 -44.2883 -43.7403 -41.2656 -41.8723 -46.9745 -47.102 -39.2375 -47.1762 -46.9675
-40.4928 -47.1842 -44.7789 -42.751 -46.8428 -47.2127 -43.1109 -43.9992 -46.1347 -47.0366
-39.43 -45.9855 -42.3686 -46.2888 -45.8059 -46.4137 -41.347 -43.4136 -44.5193 -45.6315
-37.0843 -37.1438 -46.5428 -40.6208 -37.2896 -47.1862 -41.9093 -45.4253 -37.4804 -39.6102
-47.0287 -47.0737 -47.1357 -46.6435 -37.705 -46.885 -47.1821 -45.2243 -37.9431 -43.7112
-46.7477 -44.263 -46.7819 -39.7769 -41.4095 -38.178 -40.7304 -47.1123 -47.1888 -44.9899
-42.7361 -46.8242 -42.3683 -43.0848 -38.4013 -47.0735 -41.9298 -46.954 -47.1513 -44.7598
-43.9693 -46.9035 -39.9287 -47.1264 -38.611 -43.3822 -46.8032 -47.1684 -40.821 -41.4537
-44.4949 -46.9557 -38.8077 -45.9817 -46.1311 -45.8004 -40.0642 -46.2848 -45.6236 -47.1414
-42.3555 -47.0104 -43.6764 -47.0987 -42.7113 -46.4074 -45.4141 -46.8599 -41.9353 -47.0099
-38.9917 -44.2328 -47.148 -46.5338 -40.8929 -36.5107 -43.0511 -45.209 -36.6377 -46.7208
-36.8145 -46.6301 -40.1822 -37.0342 -41.4809 -44.9701 -39.1628 -47.1323 -47.0378 -37.2772
-43.3448 -43.9346 -46.7293 -47.0457 -37.5215 -46.9239 -44.7349 -47.1052 -39.3202 -40.9464
-46.764 -37.7538 -46.7994 -42.3319 -40.2818 -41.9275 -47.067 -42.678 -47.1235 -44.4651
-46.6483 -37.9704 -43.6368 -41.4924 -46.8716 -39.4625 -43.0109 -46.9706 -38.1718 -47.0707
-47.062 -45.7831 -45.9649 -46.8362 -44.1977 -45.6053 -46.1132 -40.3628 -40.9823 -45.3934
-46.9157 -47.0913 -46.2652 -46.6702 -38.3598 -45.1853 -46.3847 -43.3022 -39.5884 -41.9079
-42.2991 -43.8951 -44.9428 -47.075 -46.5071 -46.9612 -41.4897 -35.9513 -36.0118 -38.5351
-42.6375 -36.1615 -46.9969 -46.8947 -40.4254 -36.3579 -46.598 -44.7035 -47.059 -46.7287
-36.5884 -39.697 -41.002 -36.8323 -46.9794 -38.6975 -43.5928 -42.9652 -46.6913 -44.4295
-47.0545 -46.5756 -37.0712 -46.7541 -41.8781 -46.9312 -37.2958 -44.1573 -40.4701 -47.0039
-38.8461 -46.7951 -39.7875 -41.4743 -42.2584 -46.9986 -43.255 -37.5042 -47.0342 -46.62
-45.7528 -41.0065 -45.5751 -46.8186 -45.9338 -45.3621 -42.5909 -46.08 -43.8509 -45.1523
-38.9795 -37.6976 -46.4913 -46.2291 -46.9915 -44.9073 -39.8598 -46.8537 -46.8435 -46.9484
-46.3442 -40.498 -42.9147 -46.6944 -44.6647 -46.9902 -37.8774 -43.5442 -46.4618 -41.8396
-41.4477 -39.0965 -46.5138 -44.3875 -35.3703 -40.9975 -46.8899 -46.9847 -35.4925 -42.2109
-38.0444 -46.5463 -35.6651 -35.8816 -39.9142 -46.8709 -43.2034 -36.1244 -44.1115 -46.7548
-46.9459 -42.539 -40.5099 -46.6328 -39.1961 -36.3699 -46.8981 -38.1981 -46.5741 -46.953
-36.6035 -43.8015 -46.6875 -46.4067 -41.4115 -45.5318 -45.319 -45.7083 -41.7934 -39.9513
-40.9763 -36.8197 -38.3377 -42.8599 -45.8873 -45.1086 -39.278 -46.9068 -46.7927 -46.8787
-46.0302 -44.8623 -46.6425 -46.7435 -43.491 -42.1577 -37.0191 -40.5075 -46.9211 -46.1753
-44.6176 -46.4524 -38.4618 -46.2851 -37.2038 -44.3381 -46.8889 -46.7694 -42.4824 -39.3419
-39.972 -43.1472 -46.311 -46.3968 -46.8109 -44.0591 -46.6926 -37.3753 -40.9446 -41.367
-46.8653 -38.5696 -34.8198 -34.8747 -46.529 -41.7408 -46.4743 -35.0119 -46.796 -40.4921
-35.1954 -46.8711 -43.7464 -37.5339 -35.4158 -42.8007 -46.3341 -39.3882 -35.6538 -42.0994
-46.5532 -39.9775 -38.6602 -46.7213 -35.8898 -46.7939 -46.809 -45.263 -43.4326 -45.4744
-37.6792 -46.5914 -45.0532 -45.6485 -44.8067 -36.1128 -46.5994 -46.8279 -45.8243 -46.396
-40.9035 -42.4213 -44.5612 -45.9628 -41.3152 -36.3193 -40.465 -39.4177 -43.0864 -44.2804
-37.8101 -38.7332 -46.792 -46.103 -41.6825 -46.2149 -46.6465 -36.5099 -46.7299 -39.9692
-46.6309 -43.9995 -46.2066 -46.7845 -46.4665 -37.9255 -36.6861 -42.0365 -42.737 -46.6627
-43.6848 -46.3116 -46.7632 -46.2618 -38.7887 -39.4314 -40.8543 -36.849 -40.4277 -46.3815
-46.6502 -34.2472 -41.2571 -43.3686 -34.3513 -46.7171 -46.1073 -46.5183 -38.0246 -34.5007
-46.6794 -39.9483 -42.3558 -34.6955 -46.7342 -46.3403 -36.9988 -34.9225 -41.6191 -45.193
-44.9851 -46.4522 -45.4018 -44.7396 -38.8272 -43.0203 -45.5723 -35.1587 -44.4944 -39.4304
-46.1312 -45.7439 -46.6669 -38.1064 -35.3875 -44.2133 -37.1348 -46.4895 -46.5484 -46.6491
-45.8772 -41.9691 -35.6009 -46.4047 -43.9316 -46.6799 -40.3815 -40.798 -42.6685 -46.0114
-39.9163 -38.8495 -35.7977 -46.1948 -41.1934 -43.6159 -37.2561 -46.5274 -46.6544 -38.171
-46.1083 -39.416 -35.979 -46.5581 -42.2856 -45.9992 -43.2982 -41.5509 -46.4457 -46.625
-46.2059 -46.5338 -37.3618 -46.2671 -36.1465 -46.6147 -38.8564 -42.9483 -38.2184 -40.3273
-46.2676 -39.8743 -46.0482 -40.7354 -33.7121 -33.7554 -44.903 -44.6597 -45.108 -33.8654
-36.3007 -41.8971 -34.0186 -45.3131 -44.416 -46.5404 -37.4511 -46.4664 -46.546 -39.3896
-34.2124 -45.479 -44.1359 -41.1246 -46.3207 -46.3298 -42.5947 -34.431 -45.8793 -46.5747
-45.6454 -43.8544 -36.4416 -34.6548 -38.2492 -46.1283 -38.8493 -45.7726 -43.5385 -46.5174
-34.8704 -46.3579 -37.5234 -41.478 -42.2104 -45.9044 -36.5685 -45.9002 -39.8237 -46.4663
-40.2662 -35.072 -46.3524 -43.2202 -46.5091 -40.6672 -39.3523 -46.1945 -45.9896 -46.3862
-35.2582 -38.2643 -46.4944 -42.8696 -36.6805 -37.5789 -45.9701 -41.8204 -38.8294 -41.0509
-35.4299 -46.0793 -46.3634 -46.3827 -46.4428 -42.5149 -44.5661 -46.2374 -44.806 -45.7589